 Title
GAUSSIAN             26 MOL ORBITALS    350 PRIMITIVES       13 NUCLEI
  N    1    (CENTRE  1)   0.41504270  2.66486906 -0.09388266  CHARGE =  7.0
  C    2    (CENTRE  2)   0.09499495 -0.01488085 -0.02733931  CHARGE =  6.0
  C    3    (CENTRE  3)  -2.02050068 -1.53013022  0.18754476  CHARGE =  6.0
  N    4    (CENTRE  4)  -1.21954084 -3.98479919  0.14810048  CHARGE =  7.0
  C    5    (CENTRE  5)   1.38219082 -4.10358009 -0.08889492  CHARGE =  6.0
  C    6    (CENTRE  6)   2.22593958 -1.65039112 -0.20027375  CHARGE =  6.0
  O    7    (CENTRE  7)   4.64338953 -0.82510138 -0.43356476  CHARGE =  8.0
  H    8    (CENTRE  8)  -0.22451111  3.50947873  1.50440744  CHARGE =  1.0
  H    9    (CENTRE  9)  -0.51026491  3.46727633 -1.56928301  CHARGE =  1.0
  H   10    (CENTRE 10)  -3.99507823 -1.05762516  0.36205991  CHARGE =  1.0
  H   11    (CENTRE 11)  -2.35468759 -5.49834242  0.27300833  CHARGE =  1.0
  H   12    (CENTRE 12)   2.37585750 -5.87661806 -0.15553995  CHARGE =  1.0
  H   13    (CENTRE 13)   4.50599588  1.00218755 -0.44712512  CHARGE =  1.0
CENTRE ASSIGNMENTS    1  1  1  1  1  1  1  1  1  1  1  1  1  1  1  1  1  1  1  1
CENTRE ASSIGNMENTS    1  1  1  1  1  1  1  1  1  1  1  1  1  1  1  1  1  1  1  1
CENTRE ASSIGNMENTS    1  1  1  1  2  2  2  2  2  2  2  2  2  2  2  2  2  2  2  2
CENTRE ASSIGNMENTS    2  2  2  2  2  2  2  2  2  2  2  2  2  2  2  2  2  2  2  2
CENTRE ASSIGNMENTS    2  2  2  2  2  2  2  2  3  3  3  3  3  3  3  3  3  3  3  3
CENTRE ASSIGNMENTS    3  3  3  3  3  3  3  3  3  3  3  3  3  3  3  3  3  3  3  3
CENTRE ASSIGNMENTS    3  3  3  3  3  3  3  3  3  3  3  3  4  4  4  4  4  4  4  4
CENTRE ASSIGNMENTS    4  4  4  4  4  4  4  4  4  4  4  4  4  4  4  4  4  4  4  4
CENTRE ASSIGNMENTS    4  4  4  4  4  4  4  4  4  4  4  4  4  4  4  4  5  5  5  5
CENTRE ASSIGNMENTS    5  5  5  5  5  5  5  5  5  5  5  5  5  5  5  5  5  5  5  5
CENTRE ASSIGNMENTS    5  5  5  5  5  5  5  5  5  5  5  5  5  5  5  5  5  5  5  5
CENTRE ASSIGNMENTS    6  6  6  6  6  6  6  6  6  6  6  6  6  6  6  6  6  6  6  6
CENTRE ASSIGNMENTS    6  6  6  6  6  6  6  6  6  6  6  6  6  6  6  6  6  6  6  6
CENTRE ASSIGNMENTS    6  6  6  6  7  7  7  7  7  7  7  7  7  7  7  7  7  7  7  7
CENTRE ASSIGNMENTS    7  7  7  7  7  7  7  7  7  7  7  7  7  7  7  7  7  7  7  7
CENTRE ASSIGNMENTS    7  7  7  7  7  7  7  7  8  8  8  8  8  8  8  9  9  9  9  9
CENTRE ASSIGNMENTS    9  9 10 10 10 10 10 10 10 11 11 11 11 11 11 11 12 12 12 12
CENTRE ASSIGNMENTS   12 12 12 13 13 13 13 13 13 13
TYPE ASSIGNMENTS      1  1  1  1  1  1  1  1  1  2  2  2  3  3  3  4  4  4  1  2
TYPE ASSIGNMENTS      3  4  5  6  7  8  9 10  5  6  7  8  9 10 11 12 13 17 14 15
TYPE ASSIGNMENTS     18 19 16 20  1  1  1  1  1  1  1  1  1  2  2  2  3  3  3  4
TYPE ASSIGNMENTS      4  4  1  2  3  4  5  6  7  8  9 10  5  6  7  8  9 10 11 12
TYPE ASSIGNMENTS     13 17 14 15 18 19 16 20  1  1  1  1  1  1  1  1  1  2  2  2
TYPE ASSIGNMENTS      3  3  3  4  4  4  1  2  3  4  5  6  7  8  9 10  5  6  7  8
TYPE ASSIGNMENTS      9 10 11 12 13 17 14 15 18 19 16 20  1  1  1  1  1  1  1  1
TYPE ASSIGNMENTS      1  2  2  2  3  3  3  4  4  4  1  2  3  4  5  6  7  8  9 10
TYPE ASSIGNMENTS      5  6  7  8  9 10 11 12 13 17 14 15 18 19 16 20  1  1  1  1
TYPE ASSIGNMENTS      1  1  1  1  1  2  2  2  3  3  3  4  4  4  1  2  3  4  5  6
TYPE ASSIGNMENTS      7  8  9 10  5  6  7  8  9 10 11 12 13 17 14 15 18 19 16 20
TYPE ASSIGNMENTS      1  1  1  1  1  1  1  1  1  2  2  2  3  3  3  4  4  4  1  2
TYPE ASSIGNMENTS      3  4  5  6  7  8  9 10  5  6  7  8  9 10 11 12 13 17 14 15
TYPE ASSIGNMENTS     18 19 16 20  1  1  1  1  1  1  1  1  1  2  2  2  3  3  3  4
TYPE ASSIGNMENTS      4  4  1  2  3  4  5  6  7  8  9 10  5  6  7  8  9 10 11 12
TYPE ASSIGNMENTS     13 17 14 15 18 19 16 20  1  1  1  1  2  3  4  1  1  1  1  2
TYPE ASSIGNMENTS      3  4  1  1  1  1  2  3  4  1  1  1  1  2  3  4  1  1  1  1
TYPE ASSIGNMENTS      2  3  4  1  1  1  1  2  3  4
EXPONENTS  0.4173511D+04 0.6274579D+03 0.1429021D+03 0.4023433D+02 0.1282021D+02
EXPONENTS  0.4390437D+01 0.1162636D+02 0.2716280D+01 0.7722184D+00 0.1162636D+02
EXPONENTS  0.2716280D+01 0.7722184D+00 0.1162636D+02 0.2716280D+01 0.7722184D+00
EXPONENTS  0.1162636D+02 0.2716280D+01 0.7722184D+00 0.2120315D+00 0.2120315D+00
EXPONENTS  0.2120315D+00 0.2120315D+00 0.1600000D+01 0.1600000D+01 0.1600000D+01
EXPONENTS  0.1600000D+01 0.1600000D+01 0.1600000D+01 0.4000000D+00 0.4000000D+00
EXPONENTS  0.4000000D+00 0.4000000D+00 0.4000000D+00 0.4000000D+00 0.1000000D+01
EXPONENTS  0.1000000D+01 0.1000000D+01 0.1000000D+01 0.1000000D+01 0.1000000D+01
EXPONENTS  0.1000000D+01 0.1000000D+01 0.1000000D+01 0.1000000D+01 0.3047525D+04
EXPONENTS  0.4573695D+03 0.1039487D+03 0.2921016D+02 0.9286663D+01 0.3163927D+01
EXPONENTS  0.7868272D+01 0.1881289D+01 0.5442493D+00 0.7868272D+01 0.1881289D+01
EXPONENTS  0.5442493D+00 0.7868272D+01 0.1881289D+01 0.5442493D+00 0.7868272D+01
EXPONENTS  0.1881289D+01 0.5442493D+00 0.1687145D+00 0.1687145D+00 0.1687145D+00
EXPONENTS  0.1687145D+00 0.1600000D+01 0.1600000D+01 0.1600000D+01 0.1600000D+01
EXPONENTS  0.1600000D+01 0.1600000D+01 0.4000000D+00 0.4000000D+00 0.4000000D+00
EXPONENTS  0.4000000D+00 0.4000000D+00 0.4000000D+00 0.8000000D+00 0.8000000D+00
EXPONENTS  0.8000000D+00 0.8000000D+00 0.8000000D+00 0.8000000D+00 0.8000000D+00
EXPONENTS  0.8000000D+00 0.8000000D+00 0.8000000D+00 0.3047525D+04 0.4573695D+03
EXPONENTS  0.1039487D+03 0.2921016D+02 0.9286663D+01 0.3163927D+01 0.7868272D+01
EXPONENTS  0.1881289D+01 0.5442493D+00 0.7868272D+01 0.1881289D+01 0.5442493D+00
EXPONENTS  0.7868272D+01 0.1881289D+01 0.5442493D+00 0.7868272D+01 0.1881289D+01
EXPONENTS  0.5442493D+00 0.1687145D+00 0.1687145D+00 0.1687145D+00 0.1687145D+00
EXPONENTS  0.1600000D+01 0.1600000D+01 0.1600000D+01 0.1600000D+01 0.1600000D+01
EXPONENTS  0.1600000D+01 0.4000000D+00 0.4000000D+00 0.4000000D+00 0.4000000D+00
EXPONENTS  0.4000000D+00 0.4000000D+00 0.8000000D+00 0.8000000D+00 0.8000000D+00
EXPONENTS  0.8000000D+00 0.8000000D+00 0.8000000D+00 0.8000000D+00 0.8000000D+00
EXPONENTS  0.8000000D+00 0.8000000D+00 0.4173511D+04 0.6274579D+03 0.1429021D+03
EXPONENTS  0.4023433D+02 0.1282021D+02 0.4390437D+01 0.1162636D+02 0.2716280D+01
EXPONENTS  0.7722184D+00 0.1162636D+02 0.2716280D+01 0.7722184D+00 0.1162636D+02
EXPONENTS  0.2716280D+01 0.7722184D+00 0.1162636D+02 0.2716280D+01 0.7722184D+00
EXPONENTS  0.2120315D+00 0.2120315D+00 0.2120315D+00 0.2120315D+00 0.1600000D+01
EXPONENTS  0.1600000D+01 0.1600000D+01 0.1600000D+01 0.1600000D+01 0.1600000D+01
EXPONENTS  0.4000000D+00 0.4000000D+00 0.4000000D+00 0.4000000D+00 0.4000000D+00
EXPONENTS  0.4000000D+00 0.1000000D+01 0.1000000D+01 0.1000000D+01 0.1000000D+01
EXPONENTS  0.1000000D+01 0.1000000D+01 0.1000000D+01 0.1000000D+01 0.1000000D+01
EXPONENTS  0.1000000D+01 0.3047525D+04 0.4573695D+03 0.1039487D+03 0.2921016D+02
EXPONENTS  0.9286663D+01 0.3163927D+01 0.7868272D+01 0.1881289D+01 0.5442493D+00
EXPONENTS  0.7868272D+01 0.1881289D+01 0.5442493D+00 0.7868272D+01 0.1881289D+01
EXPONENTS  0.5442493D+00 0.7868272D+01 0.1881289D+01 0.5442493D+00 0.1687145D+00
EXPONENTS  0.1687145D+00 0.1687145D+00 0.1687145D+00 0.1600000D+01 0.1600000D+01
EXPONENTS  0.1600000D+01 0.1600000D+01 0.1600000D+01 0.1600000D+01 0.4000000D+00
EXPONENTS  0.4000000D+00 0.4000000D+00 0.4000000D+00 0.4000000D+00 0.4000000D+00
EXPONENTS  0.8000000D+00 0.8000000D+00 0.8000000D+00 0.8000000D+00 0.8000000D+00
EXPONENTS  0.8000000D+00 0.8000000D+00 0.8000000D+00 0.8000000D+00 0.8000000D+00
EXPONENTS  0.3047525D+04 0.4573695D+03 0.1039487D+03 0.2921016D+02 0.9286663D+01
EXPONENTS  0.3163927D+01 0.7868272D+01 0.1881289D+01 0.5442493D+00 0.7868272D+01
EXPONENTS  0.1881289D+01 0.5442493D+00 0.7868272D+01 0.1881289D+01 0.5442493D+00
EXPONENTS  0.7868272D+01 0.1881289D+01 0.5442493D+00 0.1687145D+00 0.1687145D+00
EXPONENTS  0.1687145D+00 0.1687145D+00 0.1600000D+01 0.1600000D+01 0.1600000D+01
EXPONENTS  0.1600000D+01 0.1600000D+01 0.1600000D+01 0.4000000D+00 0.4000000D+00
EXPONENTS  0.4000000D+00 0.4000000D+00 0.4000000D+00 0.4000000D+00 0.8000000D+00
EXPONENTS  0.8000000D+00 0.8000000D+00 0.8000000D+00 0.8000000D+00 0.8000000D+00
EXPONENTS  0.8000000D+00 0.8000000D+00 0.8000000D+00 0.8000000D+00 0.5484672D+04
EXPONENTS  0.8252349D+03 0.1880470D+03 0.5296450D+02 0.1689757D+02 0.5799635D+01
EXPONENTS  0.1553962D+02 0.3599934D+01 0.1013762D+01 0.1553962D+02 0.3599934D+01
EXPONENTS  0.1013762D+01 0.1553962D+02 0.3599934D+01 0.1013762D+01 0.1553962D+02
EXPONENTS  0.3599934D+01 0.1013762D+01 0.2700058D+00 0.2700058D+00 0.2700058D+00
EXPONENTS  0.2700058D+00 0.1600000D+01 0.1600000D+01 0.1600000D+01 0.1600000D+01
EXPONENTS  0.1600000D+01 0.1600000D+01 0.4000000D+00 0.4000000D+00 0.4000000D+00
EXPONENTS  0.4000000D+00 0.4000000D+00 0.4000000D+00 0.1400000D+01 0.1400000D+01
EXPONENTS  0.1400000D+01 0.1400000D+01 0.1400000D+01 0.1400000D+01 0.1400000D+01
EXPONENTS  0.1400000D+01 0.1400000D+01 0.1400000D+01 0.1873114D+02 0.2825394D+01
EXPONENTS  0.6401217D+00 0.1612778D+00 0.1100000D+01 0.1100000D+01 0.1100000D+01
EXPONENTS  0.1873114D+02 0.2825394D+01 0.6401217D+00 0.1612778D+00 0.1100000D+01
EXPONENTS  0.1100000D+01 0.1100000D+01 0.1873114D+02 0.2825394D+01 0.6401217D+00
EXPONENTS  0.1612778D+00 0.1100000D+01 0.1100000D+01 0.1100000D+01 0.1873114D+02
EXPONENTS  0.2825394D+01 0.6401217D+00 0.1612778D+00 0.1100000D+01 0.1100000D+01
EXPONENTS  0.1100000D+01 0.1873114D+02 0.2825394D+01 0.6401217D+00 0.1612778D+00
EXPONENTS  0.1100000D+01 0.1100000D+01 0.1100000D+01 0.1873114D+02 0.2825394D+01
EXPONENTS  0.6401217D+00 0.1612778D+00 0.1100000D+01 0.1100000D+01 0.1100000D+01
MO    1     MO 0.0        OCC NO =    2.0000000  ORB. ENERGY =  -19.138530
  0.32022213D-04  0.58971581D-04  0.95282009D-04  0.12470367D-03  0.10681987D-03
  0.36747272D-04 -0.20277747D-03 -0.10024321D-03  0.26443517D-03  0.25551900D-04
  0.19892562D-04  0.94456923D-05  0.75106458D-04  0.58471577D-04  0.27764373D-04
 -0.34016057D-05 -0.26482044D-05 -0.12574611D-05 -0.26384562D-03  0.18038050D-04
  0.53589302D-04 -0.23915204D-05 -0.12771224D-03 -0.19324007D-03 -0.14578278D-03
  0.39654128D-04 -0.39579367D-05 -0.23056120D-05  0.71992897D-04  0.42450399D-04
  0.78313142D-04 -0.56281872D-04  0.19884102D-05  0.61514983D-05 -0.11611003D-04
  0.28080611D-04  0.42814348D-05  0.80964204D-04 -0.84539540D-04 -0.42642859D-05
 -0.46131196D-04  0.29770770D-06 -0.85800185D-05  0.12164171D-04  0.15955899D-04
  0.29435518D-04  0.47518052D-04  0.61854385D-04  0.52780459D-04  0.18223824D-04
 -0.19722257D-03 -0.90899700D-04  0.25489225D-03  0.14483711D-03  0.11105191D-03
  0.55422686D-04 -0.10053066D-03 -0.77080532D-04 -0.38468587D-04 -0.11919143D-04
 -0.91388425D-05 -0.45609229D-05 -0.23425840D-03 -0.44089464D-04  0.13176075D-03
  0.22334801D-05 -0.28944849D-04 -0.27959624D-03 -0.35151324D-03 -0.11175093D-03
 -0.58159119D-04  0.82294139D-05 -0.30766036D-04  0.58864475D-04  0.24354806D-05
 -0.10984730D-03  0.76932390D-05  0.85102280D-05 -0.59110986D-04  0.46420560D-04
 -0.23903544D-05  0.14948055D-03 -0.11591336D-03  0.23476401D-04  0.27852412D-04
 -0.23348324D-04 -0.16305338D-04  0.13787114D-04  0.76323788D-05  0.14080249D-04
  0.22729887D-04  0.29587559D-04  0.25247118D-04  0.87172231D-05 -0.40001243D-04
 -0.18436536D-04  0.51697972D-04  0.42989360D-04  0.32961515D-04  0.16450106D-04
 -0.30296127D-05 -0.23229149D-05 -0.11592973D-05 -0.39018999D-05 -0.29917293D-05
 -0.14930826D-05  0.92823260D-04  0.42449844D-04 -0.23477298D-04 -0.35691080D-05
 -0.71225022D-05 -0.19271740D-04 -0.21377024D-04 -0.19622528D-04 -0.23589802D-05
  0.17447789D-05  0.95137011D-05  0.85430243D-05  0.49636925D-05 -0.31437486D-05
 -0.80085959D-06  0.18309287D-06  0.39988391D-05 -0.10087293D-04 -0.31707899D-05
 -0.40491547D-04 -0.66516792D-05  0.43570493D-05  0.28495029D-04  0.36913557D-04
  0.51553203D-05  0.10007045D-04 -0.11051181D-04 -0.20351673D-04 -0.32882759D-04
 -0.43036463D-04 -0.36864587D-04 -0.12681845D-04  0.62278584D-04  0.30787470D-04
 -0.81215374D-04 -0.13392085D-04 -0.10425952D-04 -0.49506109D-05  0.36214014D-04
  0.28193188D-04  0.13387123D-04  0.72077105D-06  0.56113177D-06  0.26644521D-06
  0.10381298D-03  0.55508940D-04 -0.38650960D-04 -0.45529988D-05 -0.73405457D-05
  0.35077601D-04  0.30635663D-04  0.22166276D-04  0.67061524D-05 -0.21583664D-05
 -0.18355881D-04 -0.31267593D-04 -0.20518440D-04  0.30174657D-04 -0.82236873D-06
 -0.24654965D-05 -0.14695238D-04 -0.17868654D-04 -0.10894037D-05  0.33251520D-04
  0.48780461D-04  0.54553856D-05  0.10834193D-04  0.48254996D-05 -0.21871745D-05
 -0.87445041D-05 -0.86521354D-05 -0.15961500D-04 -0.25766811D-04 -0.33540731D-04
 -0.28620367D-04 -0.98819249D-05 -0.66992534D-04 -0.30876798D-04  0.86581764D-04
  0.78870020D-04  0.60472529D-04  0.30180030D-04  0.12761386D-03  0.97846214D-04
  0.48832118D-04 -0.90141610D-05 -0.69114869D-05 -0.34493164D-05  0.53066779D-04
  0.12271036D-03  0.11882197D-04 -0.11422239D-04 -0.14090116D-03 -0.86541903D-04
 -0.26749138D-03  0.17002687D-03 -0.25825020D-04 -0.20648293D-04 -0.16863642D-04
  0.45913790D-05 -0.24818130D-04  0.78574040D-04 -0.25819532D-05 -0.80353869D-05
 -0.37766436D-04 -0.19434553D-04  0.53106272D-06  0.13198391D-03 -0.23855964D-04
  0.74353005D-05 -0.18684601D-04  0.82159621D-04 -0.90284887D-05  0.15415515D-04
 -0.67896925D-04 -0.12525657D-03 -0.20220294D-03 -0.26320815D-03 -0.22459599D-03
 -0.77547598D-04  0.32423961D-03  0.14944174D-03 -0.41905023D-03  0.33519409D-03
  0.25700557D-03  0.12826379D-03  0.11422745D-03  0.87582363D-04  0.43709737D-04
 -0.32365312D-04 -0.24815668D-04 -0.12384758D-04  0.40423998D-03 -0.90120238D-04
  0.17069995D-03  0.58945699D-05  0.10492123D-02  0.23227349D-03  0.18262438D-03
  0.57748030D-03 -0.16854229D-03 -0.54574872D-04 -0.12923415D-03 -0.62447207D-04
 -0.44003005D-04  0.90787252D-04  0.14480894D-04 -0.78344269D-05 -0.75737280D-04
  0.15579584D-03 -0.78716043D-05  0.14372111D-03 -0.45641213D-03  0.43491014D-04
  0.83490732D-04 -0.10975392D-04 -0.19876201D-04  0.80870085D-04  0.82883149D+00
  0.15254924D+01  0.24685346D+01  0.32449579D+01  0.27831815D+01  0.95161703D+00
 -0.38503949D-01 -0.17180387D-01  0.50733912D-01 -0.36066017D-02 -0.27786922D-02
 -0.12199955D-02  0.19311965D-02  0.14878828D-02  0.65326069D-03  0.30285106D-03
  0.23333042D-03  0.10244462D-03 -0.17017271D-01  0.28272156D-03 -0.25224550D-03
 -0.22326049D-04 -0.18798808D-01 -0.19006895D-01 -0.19586717D-01  0.16556674D-03
 -0.14809170D-03 -0.31978712D-04  0.59032861D-02  0.59382260D-02  0.60391349D-02
  0.73130221D-04  0.24075853D-04 -0.37737587D-05  0.75493414D-05  0.29017475D-04
  0.70723324D-05  0.59652172D-04 -0.12739767D-03 -0.15711168D-04 -0.82300196D-04
  0.40345248D-04 -0.55058288D-05  0.26841829D-04 -0.28493572D-05 -0.48330491D-05
 -0.55022556D-05  0.41867796D-05  0.51518292D-06  0.78703331D-06  0.96128538D-05
 -0.28583672D-05 -0.48483318D-05 -0.55196544D-05  0.41975701D-05 -0.12593500D-05
  0.49598244D-06 -0.95701872D-05 -0.20018604D-05 -0.33955342D-05 -0.38656957D-05
  0.11798578D-04 -0.15323801D-04  0.12187662D-05  0.13869219D-05 -0.52579812D-05
 -0.89185313D-05 -0.10153433D-04  0.88191799D-06 -0.83098089D-05  0.11155086D-04
  0.60905423D-06 -0.18273518D-04 -0.30995345D-04 -0.35287105D-04 -0.21938926D-04
 -0.60805256D-05 -0.42073073D-04  0.11389533D-05  0.47421762D-04  0.80436284D-04
  0.91573866D-04  0.15115675D-03 -0.86030900D-04 -0.99557717D-04  0.93199221D-05
MO    2     MO 0.0        OCC NO =    2.0000000  ORB. ENERGY =  -14.363099
 -0.16696499D-04 -0.30747998D-04 -0.49680387D-04 -0.65020947D-04 -0.55696268D-04
 -0.19160162D-04  0.16878054D-03  0.83436802D-04 -0.22010094D-03  0.27744104D-03
  0.21599228D-03  0.10256077D-03  0.83580795D-04  0.65068984D-04  0.30897055D-04
 -0.26680208D-04 -0.20770968D-04 -0.98627904D-05 -0.27710451D-03 -0.14390516D-03
  0.26362866D-03  0.96436390D-05  0.10582419D-03  0.18648944D-04 -0.60616587D-07
 -0.45177581D-03 -0.13396435D-04  0.40796045D-04 -0.12891688D-03 -0.19883649D-03
 -0.83969572D-04  0.20768791D-03  0.53520420D-05 -0.15779156D-04  0.52201841D-04
  0.29030542D-04 -0.36727154D-05 -0.21997093D-03  0.66786338D-04 -0.37482505D-05
  0.63365408D-04 -0.15387796D-03  0.14766397D-04 -0.33235937D-04  0.12345635D-03
  0.22775286D-03  0.36766374D-03  0.47858894D-03  0.40838081D-03  0.14100408D-03
 -0.23899362D-03 -0.11015194D-03  0.30887754D-03 -0.29907645D-03 -0.22931285D-03
 -0.11444318D-03  0.32804680D-03  0.25152548D-03  0.12552884D-03  0.22897732D-04
  0.17556529D-04  0.87619383D-05 -0.21783739D-02  0.45654316D-03  0.11807594D-02
 -0.58172264D-04  0.72133299D-03  0.99472926D-04  0.74085294D-03  0.81382747D-03
 -0.78602770D-05 -0.56621917D-04  0.60978463D-03  0.10576595D-03  0.13380658D-03
 -0.19817386D-04 -0.87621417D-04  0.23437063D-05 -0.36335245D-03  0.19724528D-03
 -0.46160577D-04  0.60759363D-03 -0.62227418D-03  0.20131181D-03  0.48246371D-03
  0.30538337D-04 -0.62830079D-04  0.11750035D-03 -0.17989515D-03 -0.33187142D-03
 -0.53574337D-03 -0.69737868D-03 -0.59507449D-03 -0.20546492D-03  0.17694741D-02
  0.81554900D-03 -0.22868845D-02 -0.18642081D-03 -0.14293566D-03 -0.71334910D-04
 -0.23584451D-03 -0.18083061D-03 -0.90247147D-04  0.20297166D-04  0.15562580D-04
  0.77668179D-05  0.54429725D-02  0.21639011D-02 -0.98754437D-03 -0.18472226D-03
  0.11744015D-02  0.12737255D-02  0.35457470D-02  0.12648778D-02  0.42072670D-03
 -0.52601677D-04  0.67334769D-03 -0.12579953D-02 -0.42515394D-03 -0.31841125D-03
 -0.19862014D-03  0.52093932D-04  0.76676824D-03  0.13590456D-02 -0.46353827D-05
 -0.26284788D-02 -0.22747228D-02 -0.12092957D-03  0.32817413D-03 -0.18024139D-02
  0.13483572D-03  0.17015841D-03  0.67640140D+00  0.12456497D+01  0.20126306D+01
  0.26341007D+01  0.22563434D+01  0.77620825D+00 -0.29602705D-01 -0.14634122D-01
  0.38603876D-01  0.13437933D-02  0.10461646D-02  0.49675595D-03  0.20965127D-02
  0.16321686D-02  0.77501138D-03 -0.15279835D-03 -0.11895595D-03 -0.56484495D-04
 -0.13763804D-01 -0.21705324D-02 -0.29540305D-02  0.24000229D-03 -0.15544903D-01
 -0.14795140D-01 -0.23300651D-01  0.15943480D-02 -0.14572182D-02 -0.38338402D-03
  0.16579626D-02  0.14397226D-02  0.23190529D-02 -0.59979929D-03  0.13087557D-03
  0.79713636D-04  0.13981572D-02  0.14330135D-03 -0.17598117D-03 -0.57826920D-02
 -0.25125156D-02 -0.55373390D-04  0.15882204D-02  0.20826115D-02  0.58331689D-03
  0.10573595D-02 -0.17869494D-03 -0.32965727D-03 -0.53216904D-03 -0.69272597D-03
 -0.59110433D-03 -0.20409412D-03  0.17768720D-02  0.81895866D-03 -0.22964456D-02
 -0.24004608D-03 -0.18405211D-03 -0.91854901D-04 -0.25917999D-03 -0.19872278D-03
 -0.99176595D-04  0.25525524D-04  0.19571353D-04  0.97674768D-05  0.51311794D-02
 -0.14425138D-02  0.17131417D-02  0.10859945D-03  0.12772544D-02  0.15934196D-02
  0.35573845D-02  0.10736052D-02  0.40683056D-03 -0.43576884D-04 -0.96758905D-03
  0.40043212D-03 -0.40917470D-03 -0.11269050D-02  0.11913706D-03  0.81079892D-04
  0.16477134D-02 -0.19895293D-04  0.16595731D-03 -0.32197670D-02  0.23969242D-03
 -0.78902261D-03 -0.17233731D-02 -0.18000655D-03  0.29115067D-03 -0.38111851D-04
  0.13834816D-03  0.25522535D-03  0.41201285D-03  0.53631831D-03  0.45764138D-03
  0.15801257D-03 -0.25059205D-03 -0.11549765D-03  0.32386746D-03  0.39466290D-03
  0.30260248D-03  0.15101985D-03 -0.15816119D-03 -0.12126797D-03 -0.60521215D-04
 -0.34069686D-04 -0.26122474D-04 -0.13036945D-04 -0.20371021D-02  0.80601091D-03
  0.69635010D-03 -0.83587388D-04 -0.17396327D-03  0.10968911D-02  0.84548075D-03
  0.18123364D-03  0.18604212D-03 -0.23225861D-04  0.36360998D-03  0.49387870D-03
  0.14310727D-03 -0.17719433D-03 -0.38232770D-04  0.63666887D-05 -0.87696949D-04
 -0.47765105D-03 -0.25034001D-05  0.31725524D-03  0.88869538D-03  0.17982555D-05
 -0.54164391D-04  0.54425777D-03  0.57119449D-05 -0.73839060D-04 -0.22040667D-04
 -0.40566593D-04 -0.65644406D-04 -0.86291408D-04 -0.74011640D-04 -0.25305837D-04
  0.98228259D-04  0.43829258D-04 -0.12942839D-03  0.94358014D-04  0.72697763D-04
  0.31918233D-04  0.32537609D-03  0.25068474D-03  0.11006410D-03 -0.13042770D-04
 -0.10048751D-04 -0.44119430D-05 -0.35939769D-03  0.30151589D-03 -0.10640922D-03
 -0.26235022D-04 -0.47124857D-04 -0.17057689D-03  0.88031929D-04 -0.45487538D-03
  0.31353057D-04  0.49092209D-04 -0.19354537D-03 -0.74922431D-04 -0.85125934D-04
  0.16390966D-03  0.17801563D-04 -0.15280301D-04  0.11875465D-03 -0.40182939D-04
  0.87754280D-05 -0.21945588D-03 -0.17001243D-03 -0.56573388D-04 -0.13680806D-03
  0.29056124D-03  0.30247104D-04  0.87345363D-04  0.22146381D-05  0.37564453D-05
  0.42765802D-05 -0.52036710D-04  0.36535466D-04  0.44019882D-04 -0.62162498D-04
  0.22459071D-05  0.38094836D-05  0.43369624D-05 -0.51897941D-04  0.47275532D-04
  0.45656405D-04  0.53451839D-04 -0.68635528D-04 -0.11641885D-03 -0.13253874D-03
  0.54451239D-03  0.30176438D-03  0.61752029D-03 -0.36233126D-04 -0.64241180D-03
 -0.10896520D-02 -0.12405303D-02 -0.49251555D-04 -0.24190506D-02 -0.32395340D-02
  0.26643463D-03 -0.41855688D-04 -0.70995169D-04 -0.80825491D-04  0.50989854D-03
  0.45698281D-03  0.50595351D-03 -0.48930300D-04  0.41411021D-04  0.70240929D-04
  0.79966815D-04 -0.57559913D-04  0.11161905D-04 -0.98768573D-04  0.41486482D-06
MO    3     MO 0.0        OCC NO =    2.0000000  ORB. ENERGY =  -14.322462
  0.67646356D+00  0.12457642D+01  0.20128155D+01  0.26343428D+01  0.22565507D+01
  0.77627958D+00 -0.29562093D-01 -0.14614046D-01  0.38550916D-01 -0.51010376D-02
 -0.39712392D-02 -0.18856849D-02 -0.26483824D-02 -0.20618080D-02 -0.97901936D-03
  0.51049036D-03  0.39742490D-03  0.18871140D-03 -0.14580930D-01  0.61544672D-03
  0.39978010D-02 -0.11195510D-03 -0.21477151D-01 -0.14916023D-01 -0.17797219D-01
 -0.81745610D-03  0.70207872D-03 -0.21291419D-05  0.24197066D-02  0.69116398D-03
  0.31331696D-02 -0.11533619D-02  0.14974215D-03  0.17423286D-03  0.11567226D-02
 -0.14317374D-02  0.33681486D-03  0.69499274D-03  0.51469752D-04 -0.11220540D-02
 -0.41651607D-02  0.42437425D-02  0.11160945D-03  0.64921501D-03  0.24568902D-03
  0.45324827D-03  0.73168324D-03  0.95243417D-03  0.81271380D-03  0.28061055D-03
 -0.95183268D-03 -0.43869881D-03  0.12301573D-02  0.66447820D-04  0.50947974D-04
  0.25426610D-04  0.10249600D-02  0.78587435D-03  0.39220638D-03 -0.20166974D-04
 -0.15462756D-04 -0.77169991D-05 -0.96447952D-03  0.39066696D-03  0.65903110D-02
 -0.12703888D-03 -0.56401779D-03  0.13288504D-02  0.36111825D-03  0.91247556D-03
  0.15856752D-03 -0.11001635D-03  0.64368819D-03 -0.93323077D-03  0.26333110D-03
 -0.81615163D-03 -0.58992107D-04  0.10796249D-03  0.19277654D-03 -0.83536057D-03
 -0.43384427D-04 -0.91903868D-03  0.16518072D-02 -0.13145692D-04  0.34070906D-03
  0.85427452D-03  0.14329897D-03 -0.11130841D-03  0.63581204D-04  0.11729491D-03
  0.18935035D-03  0.24647789D-03  0.21032003D-03  0.72618452D-04 -0.23533991D-03
 -0.10846795D-03  0.30415545D-03  0.51064993D-03  0.39153398D-03  0.19540290D-03
  0.54097045D-03  0.41478183D-03  0.20700520D-03 -0.54426746D-04 -0.41730977D-04
 -0.20826682D-04  0.34736364D-02  0.23883993D-02 -0.72636207D-03 -0.20883604D-03
 -0.90171943D-03  0.11473645D-02  0.20155476D-03  0.94949470D-03  0.19001554D-03
 -0.11289539D-03  0.14023798D-02 -0.66605299D-03 -0.34516825D-04 -0.53385213D-03
 -0.25802342D-03  0.65995938D-04 -0.17131591D-03 -0.28277532D-03 -0.72287655D-04
 -0.24101888D-03  0.72236146D-03  0.17963554D-03  0.75496663D-03  0.12596451D-03
  0.37227421D-04 -0.81826856D-04 -0.40001091D-04 -0.73665352D-04 -0.11902314D-03
 -0.15577570D-03 -0.13343585D-03 -0.45903479D-04  0.69708374D-04  0.34460393D-04
 -0.90904309D-04 -0.27405110D-03 -0.21335316D-03 -0.10130763D-03 -0.14768473D-04
 -0.11497492D-04 -0.54594159D-05  0.25228084D-04  0.19640466D-04  0.93259882D-05
 -0.67938830D-03  0.29049475D-03 -0.49015235D-03 -0.19864436D-04 -0.22377054D-03
  0.65415311D-04  0.31928024D-03 -0.21548153D-03  0.10328844D-03  0.26774542D-04
  0.24230838D-03 -0.19376174D-03 -0.18617708D-03 -0.20035970D-03 -0.76360426D-04
  0.18482839D-04  0.84024357D-04 -0.31063551D-04  0.33000623D-05 -0.25293298D-03
  0.31769338D-03 -0.27983583D-04  0.85990819D-06 -0.22450272D-03  0.18083396D-04
 -0.93116821D-04 -0.72759748D-04 -0.13422753D-03 -0.21668485D-03 -0.28205929D-03
 -0.24068170D-03 -0.83101609D-04  0.45743546D-03  0.21083158D-03 -0.59119377D-03
  0.37843633D-03  0.29016098D-03  0.14481066D-03 -0.60878423D-04 -0.46677714D-04
 -0.23295450D-04 -0.33984158D-04 -0.26056897D-04 -0.13004218D-04 -0.84803275D-03
  0.38746480D-03 -0.14553326D-03 -0.33508173D-04  0.24164722D-03  0.36174285D-03
  0.64845271D-03  0.13498810D-03  0.73567867D-04 -0.45469538D-05 -0.11972109D-03
  0.10723486D-03 -0.16361775D-03  0.18179483D-03 -0.10738756D-04 -0.24148492D-04
  0.17318014D-04  0.15453167D-03  0.23191599D-04  0.14815690D-03 -0.14329719D-03
 -0.40646804D-04 -0.20011094D-03 -0.32029784D-03 -0.28927992D-04 -0.42837340D-04
 -0.13610132D-03 -0.25108037D-03 -0.40532157D-03 -0.52760825D-03 -0.45020907D-03
 -0.15544637D-03  0.10878960D-02  0.50141028D-03 -0.14060068D-02 -0.13288185D-03
 -0.10188537D-03 -0.50847942D-04  0.19911673D-03  0.15267008D-03  0.76193068D-04
  0.94238796D-05  0.72256331D-05  0.36060973D-05  0.34081797D-02 -0.21974297D-02
 -0.24522415D-03  0.20507160D-03  0.67565488D-03  0.12786063D-02  0.17511015D-02
 -0.40823990D-03  0.20530526D-03  0.51012014D-04  0.72188800D-03 -0.49276660D-03
 -0.23374591D-03  0.91930133D-04 -0.17839728D-03 -0.15332913D-05 -0.17848314D-03
 -0.13536492D-03  0.19551969D-04  0.71754439D-03  0.59431472D-03  0.71029296D-05
 -0.18209497D-03 -0.18821996D-03 -0.65758835D-04 -0.17050791D-03  0.12184158D-03
  0.22425354D-03  0.36288456D-03  0.47702191D-03  0.40913892D-03  0.13989155D-03
 -0.62568519D-03 -0.27917951D-03  0.82442084D-03  0.82006519D-03  0.63181602D-03
  0.27740126D-03  0.65891604D-03  0.50765929D-03  0.22288977D-03 -0.84457919D-04
 -0.65070273D-04 -0.28569355D-04 -0.29913963D-03 -0.86479596D-04 -0.45167526D-03
  0.14352121D-04 -0.10970715D-03 -0.20616973D-03  0.11153780D-04  0.33455762D-03
  0.17562969D-04 -0.24620426D-04  0.31086227D-03  0.29590574D-03  0.45571758D-03
 -0.95647613D-04  0.28094678D-04  0.13348257D-04 -0.48297791D-04 -0.17089840D-03
  0.49973453D-05  0.24431881D-03  0.22235859D-03 -0.81052737D-05 -0.99425435D-04
  0.29033660D-03 -0.68867622D-05  0.27799441D-05 -0.58251659D-03 -0.98805839D-03
 -0.11248696D-02  0.20246487D-03 -0.16957307D-02  0.19060575D-02  0.35498261D-02
 -0.58260384D-03 -0.98820639D-03 -0.11250380D-02  0.20269519D-03 -0.23260813D-02
  0.18127350D-02 -0.32270599D-02 -0.28184345D-03 -0.47805983D-03 -0.54425422D-03
  0.86940736D-03 -0.10206649D-02  0.48322180D-03  0.86970642D-04  0.18563910D-04
  0.31487904D-04  0.35847866D-04  0.28370788D-05  0.86682424D-04  0.43044446D-04
 -0.85150283D-05 -0.56646291D-05 -0.96082832D-05 -0.10938691D-04 -0.40561205D-04
 -0.12898919D-03  0.44573045D-04  0.11230798D-04  0.59799797D-04  0.10143177D-03
  0.11547649D-03  0.35369629D-03 -0.15528731D-03 -0.37450359D-03  0.19798936D-04
MO    4     MO 0.0        OCC NO =    2.0000000  ORB. ENERGY =  -10.202985
 -0.74374641D-04 -0.13696712D-03 -0.22130154D-03 -0.28963615D-03 -0.24809932D-03
 -0.85349040D-04  0.56665528D-03  0.28012652D-03 -0.73895580D-03 -0.18809588D-03
 -0.14643564D-03 -0.69532823D-04  0.48210412D-04  0.37532575D-04  0.17821794D-04
  0.16629842D-04  0.12946598D-04  0.61475026D-05  0.50364924D-03 -0.97469834D-04
 -0.96324291D-04  0.10205484D-04  0.31052697D-03  0.46580287D-03  0.55911582D-03
  0.21993859D-04  0.45543061D-04  0.68985948D-06 -0.10740315D-03 -0.86828774D-04
 -0.25138024D-03  0.30463487D-03 -0.30958368D-04 -0.32586500D-04  0.13474421D-03
 -0.41796543D-04 -0.22169364D-04 -0.62972545D-03  0.45094520D-04  0.44966233D-05
  0.22549283D-03  0.80295110D-04  0.62011468D-04  0.30347963D-04  0.58568071D-02
  0.10804666D-01  0.17442080D-01  0.22704406D-01  0.19373711D-01  0.66892768D-02
  0.39958714D-03  0.18416935D-03 -0.51643007D-03 -0.18363293D-03 -0.14079808D-03
 -0.70268110D-04  0.74087130D-04  0.56805312D-04  0.28349832D-04  0.15846650D-04
  0.12150206D-04  0.60638043D-05 -0.93539341D-04 -0.50739894D-04 -0.10475646D-03
  0.61121913D-05  0.10553955D-02  0.10741508D-02  0.18100146D-02 -0.35832441D-04
  0.14025005D-03  0.23683722D-04 -0.33874237D-03  0.63617374D-04  0.11637107D-03
  0.93062817D-03  0.71102472D-04 -0.83801559D-04 -0.24038245D-04 -0.44274243D-03
 -0.46726192D-04 -0.49696326D-03  0.17576727D-02  0.88528559D-04  0.56907800D-03
 -0.42944545D-03  0.51650016D-04 -0.37458734D-03 -0.81039222D-04 -0.14950154D-03
 -0.24134184D-03 -0.31415537D-03 -0.26806935D-03 -0.92557903D-04  0.23556042D-03
  0.10856958D-03 -0.30444045D-03 -0.16187209D-03 -0.12411325D-03 -0.61941212D-04
  0.21567808D-03  0.16536827D-03  0.82530358D-04  0.11865047D-04  0.90973655D-05
  0.45402230D-05  0.10916209D-04 -0.12843090D-04 -0.19138219D-04  0.14395974D-05
  0.37004449D-03  0.30701383D-03  0.57277990D-03  0.31076596D-03  0.33196570D-04
 -0.21104913D-04  0.34834293D-05  0.27427988D-03 -0.24836269D-04  0.11525360D-03
 -0.68765147D-05 -0.18829148D-04 -0.61694682D-04  0.21836989D-04  0.23783778D-04
  0.42208790D-03  0.57937182D-04 -0.28243961D-04 -0.23700385D-03 -0.12344815D-03
 -0.43107374D-04 -0.52156151D-04  0.21720240D-04  0.39999637D-04  0.64628516D-04
  0.84584835D-04  0.72454491D-04  0.24925185D-04 -0.72617762D-04 -0.35898652D-04
  0.94698342D-04  0.54642332D-04  0.42539928D-04  0.20199463D-04 -0.40229129D-03
 -0.31319019D-03 -0.14871378D-03  0.57935976D-06  0.45104083D-06  0.21417014D-06
 -0.32202732D-03  0.10746515D-03 -0.73585530D-04 -0.88354896D-05 -0.16237615D-04
 -0.27515909D-03  0.68093262D-04 -0.32195686D-03  0.20171531D-04  0.39083970D-04
  0.18409829D-03  0.11842785D-03 -0.13722326D-05  0.33687979D-04 -0.34804358D-04
 -0.64397956D-05  0.12314693D-03  0.83035663D-04  0.30771399D-04 -0.51014847D-04
 -0.18514698D-03 -0.91798371D-04 -0.31842595D-03 -0.63960013D-04 -0.51582528D-06
  0.14525764D-04  0.76331436D-02  0.14081660D-01  0.22732165D-01  0.29590524D-01
  0.25249648D-01  0.87180966D-02  0.80932256D-04  0.37301603D-04 -0.10459759D-03
 -0.52067357D-04 -0.39921947D-04 -0.19923849D-04 -0.25424516D-03 -0.19493906D-03