 Title
GAUSSIAN             25 MOL ORBITALS    334 PRIMITIVES       16 NUCLEI
  C    1    (CENTRE  1)  -0.31518033  2.37977483 -0.01429090  CHARGE =  6.0
  O    2    (CENTRE  2)   0.26684071 -0.21643189 -0.04738482  CHARGE =  8.0
  C    3    (CENTRE  3)   1.38016941 -1.19081897  2.20765688  CHARGE =  6.0
  C    4    (CENTRE  4)  -0.52675310 -1.41466329  4.36896411  CHARGE =  6.0
  C    5    (CENTRE  5)   2.45131438 -3.75984171  1.41920049  CHARGE =  6.0
  O    6    (CENTRE  6)   0.54337664 -5.36608997  0.45619604  CHARGE =  8.0
  H    7    (CENTRE  7)   1.35487633  3.52951477  0.45313527  CHARGE =  1.0
  H    8    (CENTRE  8)  -0.95588452  2.88375906 -1.91223806  CHARGE =  1.0
  H    9    (CENTRE  9)  -1.82557214  2.84638456  1.33285095  CHARGE =  1.0
  H   10    (CENTRE 10)   2.95945814  0.04312103  2.78189304  CHARGE =  1.0
  H   11    (CENTRE 11)  -1.39767268  0.40376720  4.81947627  CHARGE =  1.0
  H   12    (CENTRE 12)  -2.00652623 -2.76248596  3.86184136  CHARGE =  1.0
  H   13    (CENTRE 13)   0.41821963 -2.09524326  6.07892042  CHARGE =  1.0
  H   14    (CENTRE 14)   3.95667191 -3.45037402  0.01703082  CHARGE =  1.0
  H   15    (CENTRE 15)   3.28265891 -4.71590390  3.05500961  CHARGE =  1.0
  H   16    (CENTRE 16)  -0.31480049 -4.39005792 -0.82268229  CHARGE =  1.0
CENTRE ASSIGNMENTS    1  1  1  1  1  1  1  1  1  1  1  1  1  1  1  1  1  1  1  1
CENTRE ASSIGNMENTS    1  1  1  1  1  1  1  1  1  1  1  1  1  1  1  1  1  1  1  1
CENTRE ASSIGNMENTS    1  1  1  1  2  2  2  2  2  2  2  2  2  2  2  2  2  2  2  2
CENTRE ASSIGNMENTS    2  2  2  2  2  2  2  2  2  2  2  2  2  2  2  2  2  2  2  2
CENTRE ASSIGNMENTS    2  2  2  2  2  2  2  2  3  3  3  3  3  3  3  3  3  3  3  3
CENTRE ASSIGNMENTS    3  3  3  3  3  3  3  3  3  3  3  3  3  3  3  3  3  3  3  3
CENTRE ASSIGNMENTS    3  3  3  3  3  3  3  3  3  3  3  3  4  4  4  4  4  4  4  4
CENTRE ASSIGNMENTS    4  4  4  4  4  4  4  4  4  4  4  4  4  4  4  4  4  4  4  4
CENTRE ASSIGNMENTS    4  4  4  4  4  4  4  4  4  4  4  4  4  4  4  4  5  5  5  5
CENTRE ASSIGNMENTS    5  5  5  5  5  5  5  5  5  5  5  5  5  5  5  5  5  5  5  5
CENTRE ASSIGNMENTS    5  5  5  5  5  5  5  5  5  5  5  5  5  5  5  5  5  5  5  5
CENTRE ASSIGNMENTS    6  6  6  6  6  6  6  6  6  6  6  6  6  6  6  6  6  6  6  6
CENTRE ASSIGNMENTS    6  6  6  6  6  6  6  6  6  6  6  6  6  6  6  6  6  6  6  6
CENTRE ASSIGNMENTS    6  6  6  6  7  7  7  7  7  7  7  8  8  8  8  8  8  8  9  9
CENTRE ASSIGNMENTS    9  9  9  9  9 10 10 10 10 10 10 10 11 11 11 11 11 11 11 12
CENTRE ASSIGNMENTS   12 12 12 12 12 12 13 13 13 13 13 13 13 14 14 14 14 14 14 14
CENTRE ASSIGNMENTS   15 15 15 15 15 15 15 16 16 16 16 16 16 16
TYPE ASSIGNMENTS      1  1  1  1  1  1  1  1  1  2  2  2  3  3  3  4  4  4  1  2
TYPE ASSIGNMENTS      3  4  5  6  7  8  9 10  5  6  7  8  9 10 11 12 13 17 14 15
TYPE ASSIGNMENTS     18 19 16 20  1  1  1  1  1  1  1  1  1  2  2  2  3  3  3  4
TYPE ASSIGNMENTS      4  4  1  2  3  4  5  6  7  8  9 10  5  6  7  8  9 10 11 12
TYPE ASSIGNMENTS     13 17 14 15 18 19 16 20  1  1  1  1  1  1  1  1  1  2  2  2
TYPE ASSIGNMENTS      3  3  3  4  4  4  1  2  3  4  5  6  7  8  9 10  5  6  7  8
TYPE ASSIGNMENTS      9 10 11 12 13 17 14 15 18 19 16 20  1  1  1  1  1  1  1  1
TYPE ASSIGNMENTS      1  2  2  2  3  3  3  4  4  4  1  2  3  4  5  6  7  8  9 10
TYPE ASSIGNMENTS      5  6  7  8  9 10 11 12 13 17 14 15 18 19 16 20  1  1  1  1
TYPE ASSIGNMENTS      1  1  1  1  1  2  2  2  3  3  3  4  4  4  1  2  3  4  5  6
TYPE ASSIGNMENTS      7  8  9 10  5  6  7  8  9 10 11 12 13 17 14 15 18 19 16 20
TYPE ASSIGNMENTS      1  1  1  1  1  1  1  1  1  2  2  2  3  3  3  4  4  4  1  2
TYPE ASSIGNMENTS      3  4  5  6  7  8  9 10  5  6  7  8  9 10 11 12 13 17 14 15
TYPE ASSIGNMENTS     18 19 16 20  1  1  1  1  2  3  4  1  1  1  1  2  3  4  1  1
TYPE ASSIGNMENTS      1  1  2  3  4  1  1  1  1  2  3  4  1  1  1  1  2  3  4  1
TYPE ASSIGNMENTS      1  1  1  2  3  4  1  1  1  1  2  3  4  1  1  1  1  2  3  4
TYPE ASSIGNMENTS      1  1  1  1  2  3  4  1  1  1  1  2  3  4
EXPONENTS  0.3047525D+04 0.4573695D+03 0.1039487D+03 0.2921016D+02 0.9286663D+01
EXPONENTS  0.3163927D+01 0.7868272D+01 0.1881289D+01 0.5442493D+00 0.7868272D+01
EXPONENTS  0.1881289D+01 0.5442493D+00 0.7868272D+01 0.1881289D+01 0.5442493D+00
EXPONENTS  0.7868272D+01 0.1881289D+01 0.5442493D+00 0.1687145D+00 0.1687145D+00
EXPONENTS  0.1687145D+00 0.1687145D+00 0.1600000D+01 0.1600000D+01 0.1600000D+01
EXPONENTS  0.1600000D+01 0.1600000D+01 0.1600000D+01 0.4000000D+00 0.4000000D+00
EXPONENTS  0.4000000D+00 0.4000000D+00 0.4000000D+00 0.4000000D+00 0.8000000D+00
EXPONENTS  0.8000000D+00 0.8000000D+00 0.8000000D+00 0.8000000D+00 0.8000000D+00
EXPONENTS  0.8000000D+00 0.8000000D+00 0.8000000D+00 0.8000000D+00 0.5484672D+04
EXPONENTS  0.8252349D+03 0.1880470D+03 0.5296450D+02 0.1689757D+02 0.5799635D+01
EXPONENTS  0.1553962D+02 0.3599934D+01 0.1013762D+01 0.1553962D+02 0.3599934D+01
EXPONENTS  0.1013762D+01 0.1553962D+02 0.3599934D+01 0.1013762D+01 0.1553962D+02
EXPONENTS  0.3599934D+01 0.1013762D+01 0.2700058D+00 0.2700058D+00 0.2700058D+00
EXPONENTS  0.2700058D+00 0.1600000D+01 0.1600000D+01 0.1600000D+01 0.1600000D+01
EXPONENTS  0.1600000D+01 0.1600000D+01 0.4000000D+00 0.4000000D+00 0.4000000D+00
EXPONENTS  0.4000000D+00 0.4000000D+00 0.4000000D+00 0.1400000D+01 0.1400000D+01
EXPONENTS  0.1400000D+01 0.1400000D+01 0.1400000D+01 0.1400000D+01 0.1400000D+01
EXPONENTS  0.1400000D+01 0.1400000D+01 0.1400000D+01 0.3047525D+04 0.4573695D+03
EXPONENTS  0.1039487D+03 0.2921016D+02 0.9286663D+01 0.3163927D+01 0.7868272D+01
EXPONENTS  0.1881289D+01 0.5442493D+00 0.7868272D+01 0.1881289D+01 0.5442493D+00
EXPONENTS  0.7868272D+01 0.1881289D+01 0.5442493D+00 0.7868272D+01 0.1881289D+01
EXPONENTS  0.5442493D+00 0.1687145D+00 0.1687145D+00 0.1687145D+00 0.1687145D+00
EXPONENTS  0.1600000D+01 0.1600000D+01 0.1600000D+01 0.1600000D+01 0.1600000D+01
EXPONENTS  0.1600000D+01 0.4000000D+00 0.4000000D+00 0.4000000D+00 0.4000000D+00
EXPONENTS  0.4000000D+00 0.4000000D+00 0.8000000D+00 0.8000000D+00 0.8000000D+00
EXPONENTS  0.8000000D+00 0.8000000D+00 0.8000000D+00 0.8000000D+00 0.8000000D+00
EXPONENTS  0.8000000D+00 0.8000000D+00 0.3047525D+04 0.4573695D+03 0.1039487D+03
EXPONENTS  0.2921016D+02 0.9286663D+01 0.3163927D+01 0.7868272D+01 0.1881289D+01
EXPONENTS  0.5442493D+00 0.7868272D+01 0.1881289D+01 0.5442493D+00 0.7868272D+01
EXPONENTS  0.1881289D+01 0.5442493D+00 0.7868272D+01 0.1881289D+01 0.5442493D+00
EXPONENTS  0.1687145D+00 0.1687145D+00 0.1687145D+00 0.1687145D+00 0.1600000D+01
EXPONENTS  0.1600000D+01 0.1600000D+01 0.1600000D+01 0.1600000D+01 0.1600000D+01
EXPONENTS  0.4000000D+00 0.4000000D+00 0.4000000D+00 0.4000000D+00 0.4000000D+00
EXPONENTS  0.4000000D+00 0.8000000D+00 0.8000000D+00 0.8000000D+00 0.8000000D+00
EXPONENTS  0.8000000D+00 0.8000000D+00 0.8000000D+00 0.8000000D+00 0.8000000D+00
EXPONENTS  0.8000000D+00 0.3047525D+04 0.4573695D+03 0.1039487D+03 0.2921016D+02
EXPONENTS  0.9286663D+01 0.3163927D+01 0.7868272D+01 0.1881289D+01 0.5442493D+00
EXPONENTS  0.7868272D+01 0.1881289D+01 0.5442493D+00 0.7868272D+01 0.1881289D+01
EXPONENTS  0.5442493D+00 0.7868272D+01 0.1881289D+01 0.5442493D+00 0.1687145D+00
EXPONENTS  0.1687145D+00 0.1687145D+00 0.1687145D+00 0.1600000D+01 0.1600000D+01
EXPONENTS  0.1600000D+01 0.1600000D+01 0.1600000D+01 0.1600000D+01 0.4000000D+00
EXPONENTS  0.4000000D+00 0.4000000D+00 0.4000000D+00 0.4000000D+00 0.4000000D+00
EXPONENTS  0.8000000D+00 0.8000000D+00 0.8000000D+00 0.8000000D+00 0.8000000D+00
EXPONENTS  0.8000000D+00 0.8000000D+00 0.8000000D+00 0.8000000D+00 0.8000000D+00
EXPONENTS  0.5484672D+04 0.8252349D+03 0.1880470D+03 0.5296450D+02 0.1689757D+02
EXPONENTS  0.5799635D+01 0.1553962D+02 0.3599934D+01 0.1013762D+01 0.1553962D+02
EXPONENTS  0.3599934D+01 0.1013762D+01 0.1553962D+02 0.3599934D+01 0.1013762D+01
EXPONENTS  0.1553962D+02 0.3599934D+01 0.1013762D+01 0.2700058D+00 0.2700058D+00
EXPONENTS  0.2700058D+00 0.2700058D+00 0.1600000D+01 0.1600000D+01 0.1600000D+01
EXPONENTS  0.1600000D+01 0.1600000D+01 0.1600000D+01 0.4000000D+00 0.4000000D+00
EXPONENTS  0.4000000D+00 0.4000000D+00 0.4000000D+00 0.4000000D+00 0.1400000D+01
EXPONENTS  0.1400000D+01 0.1400000D+01 0.1400000D+01 0.1400000D+01 0.1400000D+01
EXPONENTS  0.1400000D+01 0.1400000D+01 0.1400000D+01 0.1400000D+01 0.1873114D+02
EXPONENTS  0.2825394D+01 0.6401217D+00 0.1612778D+00 0.1100000D+01 0.1100000D+01
EXPONENTS  0.1100000D+01 0.1873114D+02 0.2825394D+01 0.6401217D+00 0.1612778D+00
EXPONENTS  0.1100000D+01 0.1100000D+01 0.1100000D+01 0.1873114D+02 0.2825394D+01
EXPONENTS  0.6401217D+00 0.1612778D+00 0.1100000D+01 0.1100000D+01 0.1100000D+01
EXPONENTS  0.1873114D+02 0.2825394D+01 0.6401217D+00 0.1612778D+00 0.1100000D+01
EXPONENTS  0.1100000D+01 0.1100000D+01 0.1873114D+02 0.2825394D+01 0.6401217D+00
EXPONENTS  0.1612778D+00 0.1100000D+01 0.1100000D+01 0.1100000D+01 0.1873114D+02
EXPONENTS  0.2825394D+01 0.6401217D+00 0.1612778D+00 0.1100000D+01 0.1100000D+01
EXPONENTS  0.1100000D+01 0.1873114D+02 0.2825394D+01 0.6401217D+00 0.1612778D+00
EXPONENTS  0.1100000D+01 0.1100000D+01 0.1100000D+01 0.1873114D+02 0.2825394D+01
EXPONENTS  0.6401217D+00 0.1612778D+00 0.1100000D+01 0.1100000D+01 0.1100000D+01
EXPONENTS  0.1873114D+02 0.2825394D+01 0.6401217D+00 0.1612778D+00 0.1100000D+01
EXPONENTS  0.1100000D+01 0.1100000D+01 0.1873114D+02 0.2825394D+01 0.6401217D+00
EXPONENTS  0.1612778D+00 0.1100000D+01 0.1100000D+01 0.1100000D+01
MO    1     MO 0.0        OCC NO =    2.0000000  ORB. ENERGY =  -19.144320
 -0.44838470D-04 -0.82718223D-04 -0.13353286D-03 -0.17382011D-03 -0.14832101D-03
 -0.51211681D-04  0.21619119D-03  0.99642322D-04 -0.27940747D-03  0.55317555D-04
  0.42413993D-04  0.21167555D-04 -0.20019260D-03 -0.15349499D-03 -0.76604756D-04
  0.29939643D-04  0.22955819D-04  0.11456563D-04  0.24906716D-03  0.34974950D-04
 -0.10143840D-03  0.26358315D-04  0.10674478D-03  0.10730716D-02  0.10748991D-03
 -0.42897937D-03 -0.53554942D-05  0.55107597D-04 -0.38957024D-04  0.23119394D-04
 -0.48694316D-04 -0.63491469D-04  0.26036927D-04 -0.73014622D-04 -0.33432285D-04
  0.15276392D-04  0.37852252D-04 -0.22059883D-04 -0.59448782D-04 -0.12370453D-03
  0.12235674D-03  0.13619607D-04  0.10147772D-04 -0.58231876D-04  0.82889176D+00
  0.15256033D+01  0.24687141D+01  0.32451939D+01  0.27833839D+01  0.95168623D+00
 -0.38825398D-01 -0.17323817D-01  0.51157463D-01  0.44548682D-03  0.34322358D-03
  0.15069364D-03  0.21845473D-02  0.16830760D-02  0.73896100D-03  0.26392219D-02
  0.20333782D-02  0.89276254D-03 -0.17331772D-01 -0.64375263D-05 -0.29915592D-03
 -0.12807890D-03 -0.19326205D-01 -0.19016858D-01 -0.19098191D-01 -0.15149890D-03
  0.26765793D-03  0.40038995D-04  0.61635863D-02  0.61008595D-02  0.61332838D-02
  0.17833822D-05 -0.38477890D-04 -0.96752115D-04  0.13293457D-04 -0.27211292D-04
  0.46843454D-05  0.29355669D-04  0.83053130D-04  0.28958896D-04 -0.69236040D-04
 -0.14192554D-05 -0.43011932D-04  0.35138399D-04  0.12249001D-04  0.22597015D-04
  0.36478588D-04  0.47484283D-04  0.40518425D-04  0.13990038D-04 -0.59355946D-04
 -0.27357101D-04  0.76712167D-04 -0.79592311D-04 -0.61026335D-04 -0.30456418D-04
  0.24469157D-05  0.18761398D-05  0.93632524D-06 -0.73683141D-04 -0.56495559D-04
 -0.28195243D-04 -0.23875216D-03  0.12710067D-03  0.47340492D-04 -0.29671400D-04
  0.14545875D-03  0.65044832D-04  0.62972499D-03 -0.36577590D-03  0.68794077D-03
 -0.69761507D-03  0.43603738D-04  0.95437398D-04  0.47662930D-04  0.79977877D-05
 -0.32367149D-05  0.59492658D-04  0.20763664D-04  0.65779217D-05  0.11335290D-04
 -0.96675571D-04  0.24754374D-04  0.29833484D-04  0.34384579D-04 -0.44488139D-04
 -0.63839355D-04  0.23453090D-04 -0.20214951D-04 -0.37292637D-04 -0.60201880D-04
 -0.78364960D-04 -0.66868962D-04 -0.23088246D-04  0.77739007D-04  0.35829837D-04
 -0.10047060D-03  0.61282612D-04  0.46987620D-04  0.23450115D-04  0.19934424D-04
  0.15284452D-04  0.76280127D-05 -0.62158076D-04 -0.47658870D-04 -0.23785117D-04
  0.24823193D-03  0.16494882D-04  0.53652872D-05 -0.10524854D-03  0.17934552D-04
 -0.89697530D-05  0.21718348D-04  0.10516526D-04  0.22930784D-04 -0.16401324D-03
 -0.27744887D-04 -0.18079495D-04  0.95069261D-05 -0.15246202D-04 -0.50050790D-04
  0.49633610D-04  0.22767845D-04  0.33371674D-04  0.26046351D-04 -0.49566027D-04
 -0.14792488D-04 -0.59009996D-04 -0.18737508D-04 -0.85322533D-04 -0.19129058D-04
  0.22210113D-04  0.23120505D-04  0.42652817D-04  0.68854872D-04  0.89628584D-04
  0.76480233D-04  0.26406787D-04 -0.10924079D-03 -0.50348981D-04  0.14118380D-03
 -0.44080341D-04 -0.33798010D-04 -0.16867576D-04  0.68560647D-04  0.52567956D-04
  0.26235094D-04 -0.31154683D-04 -0.23887435D-04 -0.11921504D-04 -0.99248329D-04
  0.12669746D-05 -0.16597646D-04  0.70189645D-05 -0.91115982D-05  0.49779251D-04
 -0.72416074D-04 -0.18978338D-03  0.18415038D-03 -0.18171394D-03  0.27518997D-04
  0.70557576D-05  0.51299015D-04  0.66975599D-04 -0.81372015D-04  0.76920951D-04
 -0.19423367D-04 -0.14719221D-04 -0.47491818D-04  0.10309339D-03 -0.50779369D-04
 -0.10365645D-04 -0.44823284D-04  0.94937032D-04  0.15284110D-03 -0.21411514D-03
 -0.48666813D-04 -0.89572915D-04 -0.14494588D-03 -0.19053542D-03 -0.16342112D-03
 -0.55876458D-04  0.26527257D-04  0.11836410D-04 -0.34953078D-04 -0.25782847D-04
 -0.19864294D-04 -0.87214950D-05 -0.40755618D-04 -0.31400006D-04 -0.13786294D-04
 -0.58492112D-04 -0.45065019D-04 -0.19785971D-04  0.28638527D-04 -0.30170043D-05
  0.37611189D-04  0.21937862D-04 -0.50032801D-04 -0.37384378D-04 -0.40891017D-04
  0.11035262D-04  0.18430742D-04 -0.60387248D-04 -0.18652262D-04  0.22152313D-04
 -0.18595239D-04 -0.24072715D-04 -0.13289281D-04  0.12907831D-04  0.13678567D-04
  0.58287016D-04 -0.56141646D-05 -0.80366583D-04 -0.91420858D-04  0.31020519D-04
  0.39330883D-04 -0.83440191D-04 -0.14178025D-04 -0.94363805D-04  0.24448211D-04
  0.41468793D-04  0.47210755D-04  0.71608997D-05 -0.10417382D-03 -0.61559848D-04
 -0.33983977D-04  0.18331199D-04  0.31093183D-04  0.35398490D-04  0.28738715D-04
  0.26921362D-04 -0.29535945D-04  0.60146836D-04  0.28120459D-04  0.47697621D-04
  0.54302056D-04  0.59067090D-05  0.87929666D-04 -0.32442026D-04 -0.82354541D-04
  0.10959559D-05  0.18589487D-05  0.21163474D-05 -0.23301035D-04 -0.13747116D-05
 -0.13477636D-05 -0.16912315D-04 -0.15978196D-04 -0.27102045D-04 -0.30854720D-04
 -0.17255883D-04 -0.44259813D-05  0.24562292D-04 -0.74027318D-07 -0.14499266D-04
 -0.24593500D-04 -0.27998830D-04 -0.12490432D-04  0.97188929D-05  0.15084903D-04
  0.42113730D-05  0.36535608D-05  0.61971307D-05  0.70552142D-05  0.21211670D-04
  0.10520243D-04 -0.94338646D-06 -0.15988725D-04 -0.17406871D-04 -0.29525347D-04
 -0.33613564D-04  0.33423959D-04 -0.19476099D-04  0.68630333D-04 -0.31258043D-04
  0.17454911D-04  0.29606833D-04  0.33706333D-04  0.55157240D-05  0.50266444D-05
  0.17031149D-04 -0.15013036D-04  0.70191076D-05  0.11905735D-04  0.13554258D-04
  0.37667043D-04  0.19960417D-04  0.12427855D-04 -0.92075927D-05
MO    2     MO 0.0        OCC NO =    2.0000000  ORB. ENERGY =  -19.125912
 -0.61719669D-06 -0.11386074D-05 -0.18380654D-05 -0.23926150D-05 -0.20416227D-05
 -0.70492325D-06  0.15710016D-04  0.72407320D-05 -0.20303768D-04 -0.79584653D-05
 -0.61020464D-05 -0.30453488D-05  0.76541581D-05  0.58687230D-05  0.29289041D-05
  0.34980915D-06  0.26821147D-06  0.13385632D-06  0.51476298D-05  0.14106037D-05
  0.58789613D-06  0.86741384D-05  0.24143801D-04  0.28119934D-04  0.29637634D-04
 -0.25944960D-05 -0.34575635D-05  0.64788743D-05  0.37762587D-05  0.33832376D-06
  0.38365988D-05  0.11501881D-04  0.59447003D-05 -0.10543173D-04  0.41789786D-05
  0.51740910D-06 -0.41764644D-05 -0.13230447D-04  0.89278277D-05  0.44754029D-05
  0.69351119D-06 -0.10480055D-04  0.80539903D-05  0.16357623D-05  0.30035834D-04
  0.55281968D-04  0.89456660D-04  0.11759328D-03  0.10085908D-03  0.34485431D-04
  0.50053654D-04  0.22333843D-04 -0.65952137D-04  0.94649248D-05  0.72922143D-05
  0.32016749D-05  0.47054817D-05  0.36253200D-05  0.15917107D-05 -0.18942484D-04
 -0.14594163D-04 -0.64076237D-05  0.32785097D-04 -0.99859168D-05  0.15879101D-05
 -0.21187454D-04 -0.22134630D-04 -0.18215611D-04 -0.34061675D-04 -0.41508720D-04
 -0.20584269D-05  0.35241945D-04 -0.33476554D-04 -0.15147468D-05 -0.45326821D-04
  0.14489229D-04 -0.55786499D-05 -0.15544421D-04 -0.36312373D-05 -0.30658876D-04
 -0.24378742D-04  0.15698942D-04  0.40144274D-04  0.26774410D-04 -0.48052306D-05
  0.51832352D-04  0.46361816D-04  0.23523162D-04 -0.53367053D-05 -0.98451793D-05
 -0.15893172D-04 -0.20688188D-04 -0.17653268D-04 -0.60952492D-05  0.93007437D-05
  0.42867043D-05 -0.12020366D-04  0.27199711D-04  0.20855013D-04  0.10408113D-04
 -0.76981764D-04 -0.59024734D-04 -0.29457479D-04 -0.53334758D-04 -0.40893709D-04
 -0.20408827D-04  0.11103515D-03  0.11646854D-04 -0.53816397D-04 -0.19633158D-04
 -0.55892128D-04  0.64362208D-04  0.49073847D-05  0.13805032D-03  0.35914230D-04
  0.10323933D-03  0.11196378D-04  0.19028599D-04 -0.11435535D-04 -0.12098761D-03
 -0.35541215D-04 -0.89591720D-05 -0.33113872D-04  0.11091716D-04  0.33850857D-05
  0.12913445D-03 -0.95108449D-04 -0.33372933D-04 -0.29792838D-04  0.61833300D-04
  0.23217676D-04  0.76651051D-04 -0.56107980D-05 -0.10350827D-04 -0.16709444D-04
 -0.21750731D-04 -0.18559938D-04 -0.64083006D-05  0.47955145D-04  0.22102482D-04
 -0.61977668D-04 -0.35193304D-04 -0.26983994D-04 -0.13466904D-04  0.27330319D-04
  0.20955155D-04  0.10458091D-04  0.40294185D-04  0.30895025D-04  0.15418783D-04
 -0.18166753D-06  0.23503079D-04 -0.12255852D-04 -0.27510401D-05  0.66783012D-04
  0.22686624D-04  0.35946161D-04  0.30612344D-04  0.36460062D-04 -0.87186697D-04
 -0.13687468D-04 -0.11367656D-05 -0.75711481D-05 -0.20697942D-04 -0.10012843D-04
  0.35930802D-04 -0.79917577D-05  0.35198197D-05  0.54971873D-05  0.33269101D-04
  0.26530001D-04  0.11481088D-04 -0.92938283D-05 -0.37089461D-04 -0.27972650D-04
  0.75995361D-04 -0.17546729D-04 -0.32370288D-04 -0.52255682D-04 -0.68021371D-04
 -0.58042759D-04 -0.20040770D-04  0.10136847D-03  0.46720636D-04 -0.13100954D-03
 -0.15326836D-03 -0.11751646D-03 -0.58648949D-04 -0.12144974D-03 -0.93119960D-04
 -0.46473386D-04 -0.58868585D-04 -0.45136697D-04 -0.22526375D-04 -0.42006914D-05
 -0.28686772D-04 -0.64879888D-04 -0.82614128D-04  0.56339225D-03  0.49632926D-03
  0.17703948D-03  0.92514041D-03  0.52305795D-03  0.50155535D-03  0.54851219D-04
 -0.49800488D-04  0.28800969D-04 -0.41902211D-05  0.58729784D-04 -0.24523957D-04
  0.29482700D-05 -0.42274562D-04  0.56892723D-05  0.56623324D-04  0.92011565D-04
  0.48932736D-04 -0.65468134D-04  0.34812120D-04 -0.66000553D-04  0.13571007D-03
  0.82884624D+00  0.15255195D+01  0.24685786D+01  0.32450156D+01  0.27832311D+01
  0.95163397D+00 -0.38531244D-01 -0.17192566D-01  0.50769878D-01  0.76826565D-03
  0.59190727D-03  0.25987917D-03  0.36201704D-02  0.27891462D-02  0.12245854D-02
 -0.10655246D-02 -0.82092924D-03 -0.36043215D-03 -0.17108580D-01 -0.55908335D-04
 -0.30099704D-03  0.98710000D-04 -0.19136121D-01 -0.19073339D-01 -0.19188839D-01
  0.15148164D-03  0.57027938D-03 -0.26001456D-03  0.60045430D-02  0.59545551D-02
  0.60182826D-02 -0.41340207D-04 -0.71394143D-04  0.54336049D-04  0.28002028D-04
 -0.40978231D-04 -0.35362082D-05 -0.96100984D-04  0.29492119D-04 -0.16795415D-05
  0.12094900D-04  0.93442575D-04  0.12288166D-04  0.58291143D-04 -0.31066897D-05
 -0.52695337D-05 -0.59991779D-05 -0.27022057D-05  0.43135110D-05  0.42015254D-05
 -0.98603861D-06 -0.47169001D-06 -0.80007553D-06 -0.91085771D-06  0.34686315D-05
  0.26894809D-06 -0.13658461D-06 -0.19765360D-05  0.40135857D-06  0.68078010D-06
  0.77504408D-06 -0.36384868D-05  0.19564949D-05  0.29914192D-05 -0.44462553D-05
  0.12296957D-04  0.20857967D-04  0.23746058D-04  0.89389200D-05 -0.20870186D-04
 -0.18295518D-04 -0.61976467D-05  0.21795690D-05  0.36969615D-05  0.42088600D-05
  0.14253277D-04  0.21392375D-05 -0.11723967D-04 -0.13064393D-04  0.71876027D-06
  0.12191535D-05  0.13879631D-05  0.38124003D-04  0.51736611D-04  0.49146391D-05
 -0.22495960D-04  0.19824185D-05  0.33625570D-05  0.38281523D-05 -0.99874435D-05
 -0.18689170D-04  0.12170615D-04  0.24668704D-05  0.13680100D-04  0.23204038D-04
  0.26416978D-04  0.39498817D-05 -0.49683760D-04 -0.52288940D-05  0.58822625D-04
  0.18740892D-04  0.31788100D-04  0.36189628D-04  0.48937604D-04 -0.42403482D-04
  0.32541970D-04 -0.22448047D-04  0.37965411D-04  0.64396523D-04  0.73313165D-04
  0.14266046D-03  0.55720164D-04  0.39279594D-04  0.49652329D-04
MO    3     MO 0.0        OCC NO =    2.0000000  ORB. ENERGY =  -10.232397
 -0.83991268D-03 -0.15494749D-02 -0.25013329D-02 -0.32559922D-02 -0.27783441D-02
 -0.95929544D-03  0.34976122D-03  0.16120463D-03 -0.45203461D-03 -0.15578257D-03
 -0.11944420D-03 -0.59611026D-04  0.47594959D-03  0.36492796D-03  0.18212463D-03
 -0.15254825D-03 -0.11696432D-03 -0.58373393D-04 -0.24374528D-03 -0.18911145D-04
  0.76083578D-04 -0.32882568D-04  0.81709679D-03  0.45584229D-03  0.49306774D-03
  0.29503066D-03 -0.35882367D-03  0.27767754D-03 -0.35658798D-04  0.35436851D-04
  0.12594822D-03 -0.35737548D-04  0.13569465D-03  0.10821170D-04 -0.73496652D-04
 -0.22873912D-04  0.11724930D-04  0.11447971D-03  0.13973361D-03 -0.32232168D-04
  0.10601025D-03 -0.71111876D-04 -0.29426233D-05 -0.29496603D-03  0.67863680D-04
  0.12490540D-03  0.20212051D-03  0.26569307D-03  0.22788340D-03  0.77917206D-04
 -0.62717818D-03 -0.27984568D-03  0.82638805D-03  0.33752510D-03  0.26004489D-03
  0.11417371D-03 -0.56918643D-03 -0.43852746D-03 -0.19253717D-03  0.25955757D-03
  0.19997511D-03  0.87799846D-04 -0.63645228D-03 -0.30642958D-03  0.44862511D-03
 -0.45760837D-03  0.15441830D-03 -0.35095051D-03 -0.22221807D-03  0.42307555D-03
 -0.41282879D-03  0.47155324D-03  0.14272198D-03  0.39284867D-03 -0.29722015D-03
  0.11937415D-03 -0.54774584D-03  0.49028330D-03  0.85288326D-03 -0.61617222D-03
 -0.39726226D-03  0.15573408D-03 -0.40309125D-03  0.48828049D-03 -0.27143839D-02
  0.22516079D-02  0.70350630D-03  0.31832252D-02  0.53252428D+00  0.98240331D+00
  0.15859035D+01  0.20643752D+01  0.17615351D+01  0.60821574D+00 -0.78263285D-02
 -0.36071477D-02  0.10114819D-01 -0.75890563D-03 -0.58188070D-03 -0.29039925D-03
  0.31105581D-03  0.23849787D-03  0.11902715D-03 -0.11453560D-02 -0.87818637D-03
 -0.43827655D-03  0.22427968D-02  0.32061152D-04  0.18933967D-03 -0.27601586D-04
  0.13653617D-01  0.13976615D-01  0.13952740D-01 -0.40428576D-03 -0.34859770D-03
  0.15795402D-03 -0.18670873D-02 -0.20338319D-02 -0.19019061D-02  0.26722221D-03
  0.23741693D-03 -0.78506582D-04  0.58664435D-04 -0.36553520D-03 -0.17793535D-03
  0.10520895D-02  0.85483939D-03  0.74745943D-03 -0.12280828D-02  0.24176621D-03
 -0.21365337D-03  0.17725236D-02  0.94716774D-03  0.17473395D-02  0.28207478D-02
  0.36717755D-02  0.31331327D-02  0.10817954D-02  0.41564365D-03  0.19156978D-03
 -0.53718165D-03  0.78063078D-04  0.59853817D-04  0.29871250D-04  0.15548958D-04
  0.11921955D-04  0.59498912D-05 -0.29631581D-04 -0.22719617D-04 -0.11338681D-04
  0.21372175D-03 -0.10425177D-03 -0.30338729D-04  0.98955232D-04  0.11743362D-02
  0.10209320D-02  0.10897214D-02  0.11813366D-03 -0.29630468D-03 -0.48324249D-04
 -0.17800244D-03  0.62910525D-04 -0.22794692D-03 -0.63538616D-04  0.55004254D-03
  0.38784124D-04  0.22056798D-03  0.97755979D-04 -0.23558607D-04  0.75552403D-03
 -0.15345586D-03  0.10028884D-02 -0.14172280D-02 -0.13981208D-03 -0.93221262D-03
  0.32662143D-03  0.48311103D-02  0.89124551D-02  0.14387466D-01  0.18728206D-01
  0.15980812D-01  0.55177903D-02  0.34842717D-03  0.16058977D-03 -0.45031047D-03
  0.11137552D-04  0.85395682D-05  0.42618430D-05  0.29795019D-03  0.22844931D-03
  0.11401221D-03  0.96820315D-04  0.74235677D-04  0.37048805D-04  0.27958505D-03
  0.47448009D-04 -0.59073680D-04  0.24924620D-05  0.10433426D-02  0.12979200D-02
  0.10190998D-02 -0.20168166D-03 -0.41029351D-04  0.25113351D-03 -0.41365862D-04
 -0.33655699D-03  0.18575642D-04  0.30715373D-03  0.76033575D-04 -0.29989747D-03
 -0.32655759D-03 -0.26293309D-03  0.31031467D-03  0.11807464D-02  0.16459000D-03
  0.35383977D-04 -0.20107358D-03  0.62420928D-03 -0.96632800D-03  0.90767589D-03
  0.27314465D-04  0.50273198D-04  0.81351523D-04  0.10693885D-03  0.91720834D-04
  0.31360911D-04 -0.12060432D-03 -0.53813414D-04  0.15891173D-03  0.11775608D-03
  0.90724712D-04  0.39833035D-04 -0.22380570D-03 -0.17243023D-03 -0.75706157D-04
 -0.62214820D-04 -0.47933165D-04 -0.21045241D-04 -0.15445324D-03  0.42219939D-04
  0.56366506D-04 -0.88200035D-05  0.16836692D-03 -0.19114294D-03  0.15989528D-03
  0.98765567D-04  0.10505146D-03 -0.30348224D-03  0.14230826D-03  0.11103224D-03
  0.15218921D-04  0.34212647D-04  0.56693410D-04  0.47094686D-04  0.12075266D-03
 -0.87044202D-04 -0.38014627D-04 -0.28502578D-03  0.42191432D-03  0.26925076D-03
 -0.77232199D-04 -0.16078171D-03 -0.15520688D-03  0.37153200D-03  0.28687805D-04
  0.48659947D-04  0.55397630D-04 -0.13686282D-05 -0.28016331D-04 -0.20639927D-04
 -0.12337590D-03 -0.20489915D-04 -0.34754774D-04 -0.39567082D-04  0.15944749D-06
  0.16759678D-04  0.24993815D-04  0.33385062D-04  0.38271834D-04  0.64916274D-04
  0.73904884D-04  0.14339969D-04 -0.65490719D-05 -0.67706577D-04 -0.96173361D-04
 -0.19864056D-03 -0.33693199D-03 -0.38358516D-03 -0.24112310D-03  0.13289656D-02
  0.10612051D-02  0.49602035D-03  0.14416557D-04  0.24453210D-04  0.27839115D-04
 -0.87991239D-04 -0.93324861D-04 -0.31378388D-03  0.21215252D-03  0.57042237D-05
  0.96754430D-05  0.11015150D-04 -0.94209896D-04 -0.24963323D-05  0.15143237D-03
  0.32070899D-03  0.18439444D-05  0.31276786D-05  0.35607516D-05 -0.77162438D-04
 -0.32024573D-03  0.77762298D-04 -0.51899961D-06 -0.31834190D-05 -0.53996811D-05
 -0.61473461D-05 -0.93000068D-04 -0.29758766D-04 -0.34814502D-03  0.72507754D-04
 -0.85519023D-05 -0.14505645D-04 -0.16514164D-04 -0.90062590D-04  0.41760324D-04
 -0.16681501D-03 -0.27759677D-03 -0.13984151D-04 -0.23719768D-04 -0.27004117D-04
 -0.41168410D-04 -0.34788336D-04 -0.10420649D-03 -0.15941183D-03
MO    4     MO 0.0        OCC NO =    2.0000000  ORB. ENERGY =  -10.228348
  0.53248003D+00  0.98232169D+00  0.15857718D+01  0.20642037D+01  0.17613888D+01
  0.60816521D+00 -0.70963010D-02 -0.32706787D-02  0.91713244D-02  0.34847047D-03
  0.26718505D-03  0.13334407D-03 -0.15877392D-02 -0.12173777D-02 -0.60755681D-03
 -0.36011340D-04 -0.27611211D-04 -0.13779929D-04  0.26307085D-02  0.17473819D-05
 -0.40282658D-04 -0.77428773D-05  0.14830156D-01  0.15240332D-01  0.14983339D-01
 -0.30458608D-03  0.20367171D-03 -0.75592802D-04 -0.18552419D-02 -0.18658443D-02
 -0.19084052D-02  0.37118439D-04 -0.82802941D-04  0.10352965D-03  0.22798008D-03
 -0.70378326D-03 -0.53353780D-03  0.11163111D-02  0.13138066D-02  0.14733959D-02
 -0.18002513D-02  0.79754323D-03  0.12721749D-03  0.50939689D-03  0.40409905D-04
  0.74375798D-04  0.12035408D-03  0.15820881D-03  0.13569477D-03  0.46396348D-04
 -0.52386547D-03 -0.23374775D-03  0.69026025D-03 -0.25319824D-03 -0.19507560D-03
 -0.85648694D-04  0.45541367D-03  0.35087168D-03  0.15405157D-03 -0.48213824D-03
 -0.37146152D-03 -0.16309161D-03 -0.56587537D-03  0.27204844D-03 -0.74201454D-03
  0.26975820D-03  0.14719741D-03 -0.58290986D-03 -0.11521302D-03  0.45693853D-03
 -0.32373540D-03  0.30910016D-03  0.19298161D-03 -0.56578569D-03  0.37654414D-03
  0.30207569D-03  0.17279172D-03 -0.17090593D-03 -0.61601116D-03 -0.14356151D-02
  0.10457552D-03  0.21312744D-02  0.20155848D-02 -0.21216525D-04 -0.28324095D-03
  0.22912605D-02 -0.29251004D-03 -0.27049288D-03  0.80907913D-03  0.14925930D-02
  0.24095079D-02  0.31364634D-02  0.26763499D-02  0.92407930D-03  0.39067502D-03
  0.18006176D-03 -0.50491197D-03  0.19351944D-03  0.14837843D-03  0.74051237D-04
 -0.28522553D-03 -0.21869284D-03 -0.10914306D-03  0.37298302D-03  0.28597972D-03
  0.14272392D-03 -0.20114982D-03 -0.14286408D-04  0.59565785D-04  0.15625897D-03
  0.81173340D-03  0.42141073D-03  0.65267673D-03  0.38310873D-03 -0.25866642D-03
  0.21687320D-03 -0.61286192D-04  0.47779037D-04 -0.12018977D-04 -0.47459786D-04
  0.34213550D-04  0.72148020D-04  0.82461453D-04  0.33252649D-04 -0.17281264D-04
 -0.14101314D-03 -0.38298076D-04  0.42910328D-04 -0.10637122D-03 -0.61459870D-04
  0.89334642D-05 -0.38144937D-04  0.50897637D-04  0.93896203D-04  0.15157758D-03
  0.19730898D-03  0.16836411D-03  0.58132080D-04 -0.29853685D-03 -0.13759536D-03
  0.38583175D-03  0.46222797D-04  0.35440709D-04  0.17687398D-04  0.26135287D-04
  0.20038881D-04  0.10000806D-04 -0.11458535D-03 -0.87856777D-04 -0.43846689D-04
 -0.25793244D-03 -0.39421355D-04 -0.36796058D-04  0.41283685D-04 -0.38617817D-03
 -0.32524473D-03 -0.26451724D-03  0.48041752D-04 -0.67890524D-04 -0.19571543D-03
  0.56779237D-04  0.40833071D-04  0.44287668D-04 -0.34191802D-04  0.63285146D-06
  0.87465656D-04  0.50418446D-05  0.24163896D-04 -0.21134341D-04 -0.10674815D-03
  0.16091484D-04 -0.28140492D-04  0.91622621D-04 -0.88583172D-04  0.91543516D-04
 -0.14143489D-04 -0.46492693D-04 -0.85769940D-04 -0.13845928D-03 -0.18023284D-03
 -0.15379301D-03 -0.53101030D-04  0.20533492D-03  0.94638677D-04 -0.26537673D-03
 -0.10353920D-04 -0.79387288D-05 -0.39619821D-05 -0.47689106D-04 -0.36564982D-04
 -0.18248489D-04  0.58485146D-05  0.44842701D-05  0.22379650D-05  0.31262599D-03
 -0.65570233D-04  0.64300026D-04 -0.10845906D-04  0.19984605D-03  0.10546346D-03
  0.32292573D-03  0.10448583D-03 -0.49511527D-04 -0.66715260D-05 -0.19377488D-04
  0.54849093D-04 -0.69855084D-04 -0.15069040D-04  0.20265227D-04  0.39539964D-04
  0.23484932D-04  0.29344585D-04 -0.10150173D-04 -0.50667384D-04 -0.41882823D-04
  0.15466466D-04 -0.19787413D-04 -0.46150931D-04  0.14984052D-04 -0.47044701D-04
  0.16836630D-06  0.30988386D-06  0.50145058D-06  0.65917083D-06  0.56536699D-06
  0.19330858D-06  0.32500545D-05  0.14501680D-05 -0.42823655D-05  0.23351984D-04
  0.17991445D-04  0.78992135D-05 -0.24176501D-04 -0.18626691D-04 -0.81781205D-05
  0.13664431D-04  0.10527707D-04  0.46222306D-05 -0.56910588D-04 -0.60903238D-04
 -0.18449758D-04 -0.43875476D-04  0.23965174D-04 -0.23602644D-04  0.33754185D-04