 Title
GAUSSIAN             15 MOL ORBITALS    204 PRIMITIVES        8 NUCLEI
  O    1    (CENTRE  1)  -0.03804390  2.75405165  0.01908992  CHARGE =  8.0
  C    2    (CENTRE  2)   0.00318377  0.06765181  0.00424689  CHARGE =  6.0
  C    3    (CENTRE  3)  -2.57695699 -0.89726277  0.02371713  CHARGE =  6.0
  C    4    (CENTRE  4)  -4.68468463 -1.73798494  0.03935261  CHARGE =  6.0
  H    5    (CENTRE  5)   1.69030165  3.32093954  0.00618627  CHARGE =  1.0
  H    6    (CENTRE  6)   0.98226128 -0.66471896 -1.68148402  CHARGE =  1.0
  H    7    (CENTRE  7)   1.01422467 -0.68271385  1.66297589  CHARGE =  1.0
  H    8    (CENTRE  8)  -6.55306946 -2.47057141  0.05325476  CHARGE =  1.0
CENTRE ASSIGNMENTS    1  1  1  1  1  1  1  1  1  1  1  1  1  1  1  1  1  1  1  1
CENTRE ASSIGNMENTS    1  1  1  1  1  1  1  1  1  1  1  1  1  1  1  1  1  1  1  1
CENTRE ASSIGNMENTS    1  1  1  1  2  2  2  2  2  2  2  2  2  2  2  2  2  2  2  2
CENTRE ASSIGNMENTS    2  2  2  2  2  2  2  2  2  2  2  2  2  2  2  2  2  2  2  2
CENTRE ASSIGNMENTS    2  2  2  2  2  2  2  2  3  3  3  3  3  3  3  3  3  3  3  3
CENTRE ASSIGNMENTS    3  3  3  3  3  3  3  3  3  3  3  3  3  3  3  3  3  3  3  3
CENTRE ASSIGNMENTS    3  3  3  3  3  3  3  3  3  3  3  3  4  4  4  4  4  4  4  4
CENTRE ASSIGNMENTS    4  4  4  4  4  4  4  4  4  4  4  4  4  4  4  4  4  4  4  4
CENTRE ASSIGNMENTS    4  4  4  4  4  4  4  4  4  4  4  4  4  4  4  4  5  5  5  5
CENTRE ASSIGNMENTS    5  5  5  6  6  6  6  6  6  6  7  7  7  7  7  7  7  8  8  8
CENTRE ASSIGNMENTS    8  8  8  8
TYPE ASSIGNMENTS      1  1  1  1  1  1  1  1  1  2  2  2  3  3  3  4  4  4  1  2
TYPE ASSIGNMENTS      3  4  5  6  7  8  9 10  5  6  7  8  9 10 11 12 13 17 14 15
TYPE ASSIGNMENTS     18 19 16 20  1  1  1  1  1  1  1  1  1  2  2  2  3  3  3  4
TYPE ASSIGNMENTS      4  4  1  2  3  4  5  6  7  8  9 10  5  6  7  8  9 10 11 12
TYPE ASSIGNMENTS     13 17 14 15 18 19 16 20  1  1  1  1  1  1  1  1  1  2  2  2
TYPE ASSIGNMENTS      3  3  3  4  4  4  1  2  3  4  5  6  7  8  9 10  5  6  7  8
TYPE ASSIGNMENTS      9 10 11 12 13 17 14 15 18 19 16 20  1  1  1  1  1  1  1  1
TYPE ASSIGNMENTS      1  2  2  2  3  3  3  4  4  4  1  2  3  4  5  6  7  8  9 10
TYPE ASSIGNMENTS      5  6  7  8  9 10 11 12 13 17 14 15 18 19 16 20  1  1  1  1
TYPE ASSIGNMENTS      2  3  4  1  1  1  1  2  3  4  1  1  1  1  2  3  4  1  1  1
TYPE ASSIGNMENTS      1  2  3  4
EXPONENTS  0.5484672D+04 0.8252349D+03 0.1880470D+03 0.5296450D+02 0.1689757D+02
EXPONENTS  0.5799635D+01 0.1553962D+02 0.3599934D+01 0.1013762D+01 0.1553962D+02
EXPONENTS  0.3599934D+01 0.1013762D+01 0.1553962D+02 0.3599934D+01 0.1013762D+01
EXPONENTS  0.1553962D+02 0.3599934D+01 0.1013762D+01 0.2700058D+00 0.2700058D+00
EXPONENTS  0.2700058D+00 0.2700058D+00 0.1600000D+01 0.1600000D+01 0.1600000D+01
EXPONENTS  0.1600000D+01 0.1600000D+01 0.1600000D+01 0.4000000D+00 0.4000000D+00
EXPONENTS  0.4000000D+00 0.4000000D+00 0.4000000D+00 0.4000000D+00 0.1400000D+01
EXPONENTS  0.1400000D+01 0.1400000D+01 0.1400000D+01 0.1400000D+01 0.1400000D+01
EXPONENTS  0.1400000D+01 0.1400000D+01 0.1400000D+01 0.1400000D+01 0.3047525D+04
EXPONENTS  0.4573695D+03 0.1039487D+03 0.2921016D+02 0.9286663D+01 0.3163927D+01
EXPONENTS  0.7868272D+01 0.1881289D+01 0.5442493D+00 0.7868272D+01 0.1881289D+01
EXPONENTS  0.5442493D+00 0.7868272D+01 0.1881289D+01 0.5442493D+00 0.7868272D+01
EXPONENTS  0.1881289D+01 0.5442493D+00 0.1687145D+00 0.1687145D+00 0.1687145D+00
EXPONENTS  0.1687145D+00 0.1600000D+01 0.1600000D+01 0.1600000D+01 0.1600000D+01
EXPONENTS  0.1600000D+01 0.1600000D+01 0.4000000D+00 0.4000000D+00 0.4000000D+00
EXPONENTS  0.4000000D+00 0.4000000D+00 0.4000000D+00 0.8000000D+00 0.8000000D+00
EXPONENTS  0.8000000D+00 0.8000000D+00 0.8000000D+00 0.8000000D+00 0.8000000D+00
EXPONENTS  0.8000000D+00 0.8000000D+00 0.8000000D+00 0.3047525D+04 0.4573695D+03
EXPONENTS  0.1039487D+03 0.2921016D+02 0.9286663D+01 0.3163927D+01 0.7868272D+01
EXPONENTS  0.1881289D+01 0.5442493D+00 0.7868272D+01 0.1881289D+01 0.5442493D+00
EXPONENTS  0.7868272D+01 0.1881289D+01 0.5442493D+00 0.7868272D+01 0.1881289D+01
EXPONENTS  0.5442493D+00 0.1687145D+00 0.1687145D+00 0.1687145D+00 0.1687145D+00
EXPONENTS  0.1600000D+01 0.1600000D+01 0.1600000D+01 0.1600000D+01 0.1600000D+01
EXPONENTS  0.1600000D+01 0.4000000D+00 0.4000000D+00 0.4000000D+00 0.4000000D+00
EXPONENTS  0.4000000D+00 0.4000000D+00 0.8000000D+00 0.8000000D+00 0.8000000D+00
EXPONENTS  0.8000000D+00 0.8000000D+00 0.8000000D+00 0.8000000D+00 0.8000000D+00
EXPONENTS  0.8000000D+00 0.8000000D+00 0.3047525D+04 0.4573695D+03 0.1039487D+03
EXPONENTS  0.2921016D+02 0.9286663D+01 0.3163927D+01 0.7868272D+01 0.1881289D+01
EXPONENTS  0.5442493D+00 0.7868272D+01 0.1881289D+01 0.5442493D+00 0.7868272D+01
EXPONENTS  0.1881289D+01 0.5442493D+00 0.7868272D+01 0.1881289D+01 0.5442493D+00
EXPONENTS  0.1687145D+00 0.1687145D+00 0.1687145D+00 0.1687145D+00 0.1600000D+01
EXPONENTS  0.1600000D+01 0.1600000D+01 0.1600000D+01 0.1600000D+01 0.1600000D+01
EXPONENTS  0.4000000D+00 0.4000000D+00 0.4000000D+00 0.4000000D+00 0.4000000D+00
EXPONENTS  0.4000000D+00 0.8000000D+00 0.8000000D+00 0.8000000D+00 0.8000000D+00
EXPONENTS  0.8000000D+00 0.8000000D+00 0.8000000D+00 0.8000000D+00 0.8000000D+00
EXPONENTS  0.8000000D+00 0.1873114D+02 0.2825394D+01 0.6401217D+00 0.1612778D+00
EXPONENTS  0.1100000D+01 0.1100000D+01 0.1100000D+01 0.1873114D+02 0.2825394D+01
EXPONENTS  0.6401217D+00 0.1612778D+00 0.1100000D+01 0.1100000D+01 0.1100000D+01
EXPONENTS  0.1873114D+02 0.2825394D+01 0.6401217D+00 0.1612778D+00 0.1100000D+01
EXPONENTS  0.1100000D+01 0.1100000D+01 0.1873114D+02 0.2825394D+01 0.6401217D+00
EXPONENTS  0.1612778D+00 0.1100000D+01 0.1100000D+01 0.1100000D+01
MO    1     MO 0.0        OCC NO =    2.0000000  ORB. ENERGY =  -19.143587
  0.82884050D+00  0.15255090D+01  0.24685615D+01  0.32449932D+01  0.27832118D+01
  0.95162738D+00 -0.38499552D-01 -0.17178425D-01  0.50728119D-01  0.32216899D-02
  0.24821384D-02  0.10897924D-02 -0.22271595D-02 -0.17159063D-02 -0.75337530D-03
 -0.41747102D-04 -0.32163892D-04 -0.14121681D-04 -0.17121545D-01 -0.24981548D-03
  0.20190533D-03  0.33859030D-05 -0.18937792D-01 -0.18962351D-01 -0.19531380D-01
  0.21298830D-03 -0.98064867D-05  0.41531284D-05  0.59393879D-02  0.59369106D-02
  0.60429133D-02 -0.20791226D-06  0.19075523D-05 -0.11319372D-05  0.26861013D-04
 -0.18048333D-04 -0.41358958D-06 -0.83345826D-04  0.12627246D-03 -0.87130737D-08
  0.27627872D-05 -0.72127463D-04  0.12494818D-05 -0.45978285D-05 -0.37469096D-04
 -0.69123165D-04 -0.11158622D-03 -0.14525210D-03 -0.12394388D-03 -0.42794845D-04
  0.17767196D-03  0.81888845D-04 -0.22962487D-03 -0.28662845D-04 -0.21976851D-04
 -0.10967989D-04  0.19238843D-03  0.14751125D-03  0.73618450D-04  0.13100288D-05
  0.10044470D-05  0.50128946D-06  0.29339292D-03 -0.13674464D-04  0.86510092D-04
  0.61717613D-06  0.71176167D-04  0.11056161D-02  0.48979209D-04 -0.49728940D-05
 -0.47365251D-06  0.11400241D-04 -0.15209699D-05  0.22314573D-05 -0.28614916D-04
 -0.11162626D-05 -0.51015276D-06  0.36276864D-06  0.31139872D-05 -0.50451608D-04
  0.75761188D-06  0.73412421D-04  0.15801998D-03 -0.82598593D-06 -0.82754383D-04
 -0.66651539D-05 -0.14468497D-05 -0.14356438D-05 -0.15011630D-04 -0.27693526D-04
 -0.44705937D-04 -0.58193847D-04 -0.49656915D-04 -0.17145339D-04 -0.28484779D-04
 -0.13128609D-04  0.36813989D-04  0.57460160D-04  0.44056806D-04  0.21987434D-04
  0.38334031D-04  0.29392103D-04  0.14668720D-04 -0.34072359D-06 -0.26124524D-06
 -0.13037968D-06  0.36330765D-03 -0.19572052D-03 -0.71325669D-04  0.14851113D-05
 -0.16479400D-03 -0.51700000D-04 -0.20288779D-03  0.26660943D-03  0.71410183D-06
 -0.91556183D-06  0.12410819D-04 -0.87489946D-04 -0.39201229D-04 -0.80857784D-04
 -0.14232241D-05  0.25147862D-06  0.51279297D-04 -0.37039273D-04  0.80009128D-07
 -0.19984531D-03  0.14001112D-04 -0.50887515D-06  0.46007419D-04  0.97116707D-04
  0.26884776D-06 -0.10545416D-05  0.47475487D-05  0.87583004D-05  0.14138613D-04
  0.18404273D-04  0.15704399D-04  0.54223516D-05 -0.40611201D-04 -0.18717665D-04
  0.52486287D-04  0.18381846D-04  0.14094034D-04  0.70339106D-05 -0.48352196D-04
 -0.37073397D-04 -0.18502223D-04 -0.43705899D-06 -0.33510912D-06 -0.16724293D-06
 -0.33090285D-03 -0.15887673D-03 -0.74887161D-04  0.11170485D-05 -0.52034825D-04
 -0.19053585D-04 -0.38466278D-04  0.14524686D-03  0.10327055D-05 -0.11846160D-05
 -0.27902678D-04 -0.19756277D-04  0.88180124D-05 -0.82820425D-04  0.25735041D-06
  0.48509769D-06 -0.14488474D-05 -0.11410891D-04 -0.18215302D-06 -0.14941809D-04
  0.33876449D-04  0.59114341D-06  0.19288352D-04  0.35622475D-06 -0.44684352D-07
 -0.10101463D-05  0.32010701D-04  0.54296207D-04  0.61814312D-04  0.14847304D-03
 -0.47441664D-05 -0.68717904D-04 -0.32262593D-06  0.14530601D-04  0.24646649D-04
  0.28059339D-04  0.99155830D-05 -0.61339060D-04  0.18107506D-04  0.60965343D-04
  0.14527881D-04  0.24642036D-04  0.28054087D-04  0.98868291D-05 -0.62492137D-04
  0.18718546D-04 -0.59590035D-04  0.98743944D-05  0.16748842D-04  0.19067964D-04
 -0.52699303D-04  0.49056325D-04 -0.15958328D-04 -0.55439482D-06
MO    2     MO 0.0        OCC NO =    2.0000000  ORB. ENERGY =  -10.257174
  0.34677242D-04  0.63824637D-04  0.10328031D-03  0.13576486D-03  0.11644473D-03
  0.39814431D-04 -0.47284505D-03 -0.21098254D-03  0.62303427D-03 -0.22988931D-03
 -0.17711732D-03 -0.77764044D-04 -0.39525982D-03 -0.30452638D-03 -0.13370349D-03
 -0.41938770D-07 -0.32311562D-07 -0.14186516D-07 -0.42828402D-03  0.17637291D-03
  0.59358703D-03  0.15741618D-05  0.51374489D-05 -0.81554560D-03  0.29181386D-03
 -0.30140832D-03  0.36298785D-05 -0.90986836D-05  0.30078073D-03 -0.52509630D-03
  0.15118228D-03  0.91780852D-04 -0.22492724D-05 -0.81283300D-05  0.14427572D-03
  0.17613760D-02 -0.11794522D-04 -0.89730387D-04 -0.24996056D-02 -0.23823628D-04
 -0.34309676D-03 -0.27845226D-02  0.59207193D-04 -0.25459340D-05  0.53262388D+00
  0.98258706D+00  0.15862002D+01  0.20647613D+01  0.17618646D+01  0.60832950D+00
 -0.80969827D-02 -0.37318919D-02  0.10464615D-01 -0.14676197D-02 -0.11252777D-02
 -0.56159243D-03  0.77213024D-03  0.59202049D-03  0.29545972D-03  0.18215811D-04
  0.13966729D-04  0.69703765D-05  0.11449458D-02  0.40480743D-03  0.13722713D-03
 -0.31330012D-05  0.14775975D-01  0.13936066D-01  0.13370744D-01  0.91375961D-03
 -0.21834539D-04 -0.26341740D-05 -0.18228509D-02 -0.18026106D-02 -0.16803925D-02
 -0.13644625D-03  0.19695006D-05 -0.35627054D-07 -0.65883995D-03  0.79175758D-03
 -0.27208808D-04 -0.98270440D-04 -0.10053380D-02  0.53172275D-04  0.20747903D-02
 -0.13699347D-02  0.28454149D-04 -0.30446779D-04  0.12247298D-02  0.22593874D-02
  0.36473518D-02  0.47477683D-02  0.40512793D-02  0.13988094D-02  0.18756699D-03
  0.86449454D-04 -0.24241329D-03 -0.20595645D-03 -0.15791434D-03 -0.78810325D-04
 -0.13193317D-03 -0.10115799D-03 -0.50484926D-04  0.12557062D-05  0.96279588D-06
  0.48050262D-06 -0.28532778D-02  0.19792756D-02  0.76610561D-03 -0.14808631D-04
  0.17152505D-02  0.69293422D-03  0.62095945D-03  0.86233372D-03 -0.16299144D-04
 -0.74910268D-05 -0.11890976D-02  0.70115819D-04  0.24211532D-03 -0.11063388D-02
  0.21407145D-04  0.87270162D-05 -0.41760033D-03  0.32819480D-03 -0.67551193D-05
  0.30252731D-03 -0.14169036D-02  0.22509933D-04  0.95027367D-03  0.43231920D-03
 -0.22445753D-05  0.28369014D-04  0.15861237D-03  0.29260885D-03  0.47236141D-03
  0.61487420D-03  0.52467327D-03  0.18115707D-03 -0.99542480D-03 -0.45879038D-03
  0.12864961D-02  0.65547337D-03  0.50257541D-03  0.25082035D-03  0.32158843D-03
  0.24657361D-03  0.12305751D-03 -0.45548931D-05 -0.34924031D-05 -0.17429539D-05
  0.31310079D-02  0.15702034D-02  0.64161294D-03 -0.11563473D-04 -0.15710614D-02
 -0.11113083D-02 -0.10371502D-02 -0.46949616D-03  0.77339255D-05  0.37136710D-05
  0.45982556D-03  0.27511696D-04 -0.75161815D-04  0.48889253D-03 -0.76096846D-05
 -0.35747816D-05 -0.39460613D-03  0.25905939D-03 -0.65201843D-05  0.32111025D-03
 -0.10983785D-02  0.21908472D-04  0.86270813D-03  0.32120033D-03 -0.23479190D-05
  0.21308622D-04 -0.10236615D-03 -0.17363236D-03 -0.19767431D-03 -0.14904247D-03
 -0.73939596D-04  0.17338275D-04  0.78092685D-06 -0.18447587D-03 -0.31290600D-03
 -0.35623242D-03 -0.19603035D-03  0.93273567D-03 -0.69663919D-03 -0.14374086D-02
 -0.18448378D-03 -0.31291941D-03 -0.35624769D-03 -0.19601867D-03  0.95999498D-03
 -0.71194977D-03  0.14117637D-02 -0.21338912D-03 -0.36194833D-03 -0.41206538D-03
  0.52533466D-03 -0.89819626D-03 -0.33650932D-03  0.67558741D-05
MO    3     MO 0.0        OCC NO =    2.0000000  ORB. ENERGY =  -10.182814
  0.31530605D-04  0.58033145D-04  0.93908583D-04  0.12344546D-03  0.10587845D-03
  0.36201642D-04 -0.14820099D-03 -0.66126991D-04  0.19527389D-03  0.14533681D-03
  0.11197417D-03  0.49162693D-04  0.19372555D-03  0.14925509D-03  0.65531024D-04
 -0.37589031D-06 -0.28960322D-06 -0.12715141D-06 -0.22987759D-03  0.67356246D-04
 -0.31458873D-04 -0.79794932D-06 -0.11995862D-03 -0.39661816D-04  0.20457897D-03
 -0.57373384D-03  0.30592280D-05  0.28455387D-05  0.14164810D-03  0.16274427D-03
  0.78247138D-06  0.89486302D-05 -0.26206376D-05  0.16596027D-05 -0.12320322D-03
 -0.14460244D-03  0.30758025D-05  0.47952583D-03  0.54811408D-04  0.17680445D-05
 -0.10991617D-03  0.37899592D-03 -0.10995452D-04  0.12559782D-04 -0.11823289D-02
 -0.21811659D-02 -0.35210781D-02 -0.45833974D-02 -0.39110213D-02 -0.13503817D-02
 -0.26896460D-04 -0.12396554D-04  0.34761231D-04 -0.52123420D-03 -0.39964932D-03
 -0.19945302D-03 -0.31966597D-03 -0.24509959D-03 -0.12232187D-03  0.32645317D-05
  0.25030359D-05  0.12491903D-05  0.36954871D-03  0.12625956D-03  0.12672850D-04
 -0.11436714D-05  0.10914591D-02  0.34801941D-03  0.26980640D-03  0.65091563D-03
 -0.12204859D-04 -0.53737820D-05 -0.47615244D-03  0.87881614D-04  0.23116170D-03
 -0.54599393D-03  0.10583758D-04  0.36724419D-05  0.55343190D-03 -0.29450720D-03
  0.73256803D-05 -0.51113452D-03  0.15638482D-02 -0.29427994D-04 -0.11491612D-02
 -0.68032663D-03  0.74509531D-05 -0.36050686D-04  0.52147921D+00  0.96202731D+00
  0.15530104D+01  0.20215581D+01  0.17249992D+01  0.59560075D+00 -0.71080817D-02
 -0.32761084D-02  0.91865498D-02  0.14545992D-03  0.11152944D-03  0.55661008D-04
 -0.46121613D-04 -0.35363127D-04 -0.17648679D-04 -0.16232562D-05 -0.12446099D-05
 -0.62114758D-06  0.44723540D-02 -0.11233216D-02 -0.45017641D-03  0.83251353D-05
  0.19030075D-01  0.14420088D-01  0.13499197D-01  0.43064216D-02 -0.82592236D-04
 -0.31262398D-04 -0.23373992D-02 -0.22823523D-02 -0.22600978D-02 -0.64446784D-04
  0.11233465D-05  0.37414124D-06  0.45238552D-04 -0.12245979D-04  0.59938481D-06
 -0.71624561D-04  0.38737575D-04 -0.23054205D-05 -0.64091095D-04 -0.19996400D-05
  0.50726603D-06 -0.85136083D-06  0.10746935D+00  0.19825997D+00  0.32005306D+00
  0.41661399D+00  0.35549747D+00  0.12274473D+00 -0.18380014D-02 -0.84713315D-03
  0.23754498D-02 -0.22270484D-03 -0.17075595D-03 -0.85219184D-04 -0.78853865D-04
 -0.60460142D-04 -0.30173848D-04  0.17029274D-05  0.13056967D-05  0.65163416D-06
 -0.22962936D-02 -0.11710251D-02 -0.46438539D-03  0.86972045D-05  0.44619377D-02
  0.36413980D-02  0.34761655D-02  0.81094575D-03 -0.14492024D-04 -0.59760953D-05
 -0.11289973D-02 -0.15855140D-03  0.17623898D-04 -0.90390745D-03  0.17061090D-04
  0.67444951D-05 -0.11033797D-03  0.71515216D-04 -0.17676216D-05  0.99045950D-04
 -0.29850988D-03  0.60003757D-05  0.23196796D-03  0.83964233D-04 -0.69751083D-06
  0.58861295D-05 -0.34920776D-04 -0.59232246D-04 -0.67433818D-04 -0.28962488D-04
 -0.21800875D-04  0.41643761D-05  0.28876246D-06 -0.26397470D-04 -0.44775105D-04
 -0.50974874D-04 -0.11470458D-03  0.23286370D-03  0.15266607D-03  0.11222668D-03
 -0.26397656D-04 -0.44775421D-04 -0.50975235D-04 -0.11469999D-03  0.23069533D-03
  0.15389578D-03 -0.11500487D-03  0.22987830D-03  0.38991710D-03  0.44390684D-03
 -0.33415301D-03  0.20127965D-03  0.71881572D-04 -0.15274394D-05
MO    4     MO 0.0        OCC NO =    2.0000000  ORB. ENERGY =  -10.176412
 -0.25555181D-05 -0.47035174D-05 -0.76111790D-05 -0.10005108D-04 -0.85813229D-05
 -0.29341000D-05  0.55846059D-05  0.24918403D-05 -0.73584378D-05  0.10445896D-04
  0.80479998D-05  0.35335054D-05  0.49246342D-04  0.37941652D-04  0.16658429D-04
  0.17738507D-06  0.13666563D-06  0.60003573D-07 -0.10223238D-03 -0.51012195D-04
  0.15883919D-03  0.13315271D-05 -0.32314322D-04 -0.39414939D-05  0.63857398D-05
 -0.76366569D-04  0.33602154D-06  0.61159806D-06  0.80372896D-05 -0.14266521D-03
  0.24343145D-05  0.12114178D-03  0.53261504D-06 -0.27084965D-05  0.49231198D-04
  0.14324724D-03 -0.25367313D-05 -0.25162117D-03 -0.14011015D-03 -0.23772238D-06
  0.10392757D-03 -0.28963156D-03  0.78479164D-05 -0.66129417D-05  0.28566615D-03
  0.52699826D-03  0.85073859D-03  0.11074089D-02  0.94495399D-03  0.32626991D-03
 -0.65249583D-03 -0.30073473D-03  0.84329158D-03 -0.80358120D-03 -0.61613510D-03
 -0.30749460D-03 -0.13430484D-03 -0.10297643D-03 -0.51392457D-04  0.69611290D-05
  0.53373522D-05  0.26637128D-05  0.54314231D-03 -0.31997391D-03 -0.50503898D-04
  0.27854369D-05 -0.83471469D-03 -0.94935160D-03 -0.94398826D-03  0.84308953D-05
 -0.20479130D-05 -0.15447886D-06  0.31633833D-03  0.10804988D-03  0.12427285D-04
  0.28664771D-03 -0.42627674D-05 -0.16985722D-05 -0.19085236D-03  0.15243273D-03
 -0.45321080D-05  0.14516375D-03 -0.37435287D-03  0.11620256D-04  0.42739333D-03
 -0.82945323D-04  0.19760683D-05  0.25344826D-05 -0.10748611D+00 -0.19829088D+00
 -0.32010297D+00 -0.41667896D+00 -0.35555291D+00 -0.12276387D+00  0.12161072D-02
  0.56050271D-03 -0.15717081D-02  0.29541788D-03  0.22650769D-03  0.11304321D-03
  0.14969719D-03  0.11477831D-03  0.57282423D-04 -0.20168358D-05 -0.15463818D-05
 -0.77175289D-06 -0.13561263D-02 -0.37452097D-03 -0.16278042D-03  0.27066803D-05
 -0.31073585D-02 -0.24155117D-02 -0.22605407D-02 -0.68728998D-03  0.12476675D-04
  0.48982206D-05 -0.18705133D-03  0.68889547D-03  0.82548195D-03 -0.75325212D-03
  0.15312932D-04  0.57314295D-05  0.37184841D-04 -0.31947226D-04  0.76312958D-06
 -0.13994408D-04  0.12687765D-03 -0.22401971D-05 -0.97560116D-04 -0.31035969D-04
 -0.49191667D-07 -0.21128549D-05  0.52152258D+00  0.96210732D+00  0.15531395D+01
  0.20217262D+01  0.17251426D+01  0.59565029D+00 -0.64665441D-02 -0.29804243D-02
  0.83574208D-02  0.60671836D-03  0.46519316D-03  0.23216399D-03  0.27023506D-03
  0.20719910D-03  0.10340687D-03 -0.43690254D-05 -0.33498916D-05 -0.16718307D-05
  0.22218802D-02 -0.13473860D-03 -0.41579332D-04  0.10619156D-05  0.19436074D-01
  0.15399017D-01  0.14656030D-01  0.37383313D-02 -0.71290732D-04 -0.27743452D-04
 -0.19372901D-02 -0.21938765D-02 -0.22549053D-02  0.28741314D-03 -0.45260383D-05
 -0.20903080D-05 -0.13191621D-03  0.83062339D-04 -0.21281525D-05  0.11474206D-03
 -0.35123056D-03  0.72361980D-05  0.28100656D-03  0.10204354D-03 -0.85174046D-06
  0.68442957D-05  0.13837344D-05  0.23470754D-05  0.26720623D-05  0.27155228D-04
  0.20002067D-04 -0.13192462D-03 -0.89319465D-06 -0.49172146D-04 -0.83405266D-04
 -0.94953948D-04  0.46852409D-04  0.36146496D-04 -0.14279343D-03 -0.18746260D-03
 -0.49169894D-04 -0.83401446D-04 -0.94949598D-04  0.46851146D-04  0.39702456D-04
 -0.14480581D-03  0.18518718D-03 -0.10273899D-03 -0.17426478D-03 -0.19839429D-03
 -0.31556447D-03 -0.15248580D-02 -0.58709598D-03  0.11409130D-04
MO    5     MO 0.0        OCC NO =    2.0000000  ORB. ENERGY =   -1.025610
 -0.17436098D+00 -0.32091728D+00 -0.51930474D+00 -0.68264062D+00 -0.58549689D+00
 -0.20019133D+00 -0.26768391D+00 -0.11944004D+00  0.35270803D+00  0.26484761D+00
  0.20405081D+00  0.89589294D-01 -0.21454899D+00 -0.16529843D+00 -0.72574915D-01
 -0.35997130D-02 -0.27733848D-02 -0.12176653D-02  0.13021569D+00  0.60255616D-02
 -0.93197890D-02 -0.10579373D-03 -0.39114109D-01 -0.37050511D-01 -0.76990865D-01
  0.91356696D-02 -0.65079891D-03  0.34552202D-03 -0.12785555D-01 -0.72046414D-02
 -0.11167353D-01 -0.17476999D-02  0.20547446D-04  0.58761161D-04  0.19388805D-02
 -0.60299008D-02  0.85898067D-04 -0.20172261D-02  0.86400539D-02 -0.77399174D-04
 -0.37994156D-02  0.94496485D-02 -0.18029503D-03  0.34530098D-04 -0.41854923D-01
 -0.77214161D-01 -0.12464760D+00 -0.16225414D+00 -0.13845175D+00 -0.47804061D-01
 -0.53669923D-01 -0.24736418D-01  0.69363499D-01 -0.26741572D-03 -0.20503741D-03
 -0.10232804D-03  0.13183898D+00  0.10108577D+00  0.50448883D-01  0.71492715D-03
  0.54816080D-03  0.27357066D-03  0.98443838D-02  0.16197293D-02  0.24090980D-02
 -0.22232683D-05  0.47931909D-02  0.44663674D-01  0.40218584D-02  0.54057166D-03
 -0.12784852D-04  0.43269360D-03 -0.66988242D-03  0.98684504D-02 -0.20166015D-02
  0.24524754D-02 -0.11372628D-04  0.10531954D-03 -0.10611428D-02  0.68918068D-02
 -0.66112026D-04  0.27979199D-02 -0.91147198D-02 -0.11436361D-04  0.38550835D-03
 -0.11560701D-01  0.20977244D-03 -0.18772674D-04 -0.91123343D-02 -0.16810478D-01
 -0.27137323D-01 -0.35324731D-01 -0.30142657D-01 -0.10407535D-01 -0.10296290D-01
 -0.47455507D-02  0.13307019D-01  0.26239976D-01  0.20119150D-01  0.10040866D-01
  0.20041744D-01  0.15366738D-01  0.76690793D-02 -0.14256748D-03 -0.10931170D-03
 -0.54554201D-04  0.39613455D-02  0.13182904D-02  0.96993989D-03 -0.75038759D-05
  0.77535710D-02  0.64634674D-02  0.18687207D-02  0.76001596D-02 -0.71816245D-04
 -0.23107232D-04  0.16029369D-02  0.32713971D-03  0.26687785D-03  0.32803842D-02
 -0.73350497D-05 -0.30568054D-04 -0.24015590D-03 -0.33689545D-03 -0.44881147D-05
  0.14366184D-03  0.81688405D-03  0.22370430D-04  0.57680587D-03  0.19380231D-03
 -0.89060865D-05 -0.16399149D-04 -0.15134938D-02 -0.27921005D-02 -0.45073160D-02
 -0.58671862D-02 -0.50064806D-02 -0.17286174D-02 -0.64438447D-03 -0.29699621D-03
  0.83280838D-03  0.35623872D-02  0.27314126D-02  0.13631663D-02  0.26566525D-02
  0.20369526D-02  0.10165821D-02 -0.19521061D-04 -0.14967511D-04 -0.74698372D-05
  0.98417428D-03  0.36383881D-03  0.14636794D-03 -0.25799841D-05  0.13062701D-02
  0.12677270D-02  0.14979342D-02  0.51566260D-03  0.62238399D-05 -0.75324657D-05
  0.61541417D-03  0.21803754D-03 -0.19009357D-03  0.66262137D-03 -0.11533525D-04
 -0.17937144D-05  0.16830201D-03 -0.49953119D-04  0.37467365D-05  0.29189997D-04
  0.39375716D-03 -0.12798246D-04 -0.53409603D-03 -0.24389780D-03  0.15580368D-05
 -0.59037592D-05  0.31269822D-01  0.53039536D-01  0.60383638D-01  0.33415948D-02
 -0.31869116D-01 -0.14712390D-01  0.21494462D-03  0.57758395D-02  0.97969169D-02
  0.11153444D-01  0.73084499D-03 -0.18960775D-02  0.43479576D-02  0.25272437D-02
  0.57760111D-02  0.97972080D-02  0.11153775D-01  0.73086077D-03 -0.19440954D-02
  0.43742414D-02 -0.24437098D-02  0.13463548D-04  0.22836725D-04  0.25998804D-04
  0.95455402D-04  0.21715028D-03  0.17119257D-03 -0.10785187D-05
MO    6     MO 0.0        OCC NO =    2.0000000  ORB. ENERGY =   -0.768058
  0.41357344D-01  0.76119590D-01  0.12317587D+00  0.16191812D+00  0.13887623D+00
  0.47484143D-01  0.67027204D-01  0.29907408D-01 -0.88316976D-01 -0.21286773D+00
 -0.16400311D+00 -0.72006200D-01 -0.22840962D+00 -0.17597730D+00 -0.77263514D-01
  0.74973479D-03  0.57763024D-03  0.25361079D-03 -0.36700115D-01 -0.63357711D-02
 -0.88653770D-02  0.11201959D-04 -0.70989090D-03  0.28235456D-01  0.16714232D-01
 -0.41188855D-02  0.29897416D-03  0.15982342D-03  0.14265170D-02  0.37712607D-02
  0.18842666D-02 -0.12768204D-03  0.82650124D-05  0.21271776D-04 -0.17359835D-03
  0.16706853D-03 -0.32147298D-04 -0.44357797D-02 -0.31264303D-02  0.79864443D-04
  0.49565747D-02  0.26252247D-02  0.16577452D-04  0.42235924D-05 -0.59054198D-01
 -0.10894346D+00 -0.17586853D+00 -0.22892857D+00 -0.19534516D+00 -0.67447991D-01
 -0.79933924D-01 -0.36841473D-01  0.10330733D+00 -0.10309886D+00 -0.79049669D-01
 -0.39451325D-01 -0.93475288D-01 -0.71670922D-01 -0.35768813D-01  0.48068710D-03
  0.36856038D-03  0.18393746D-03  0.31303453D-01 -0.47159210D-02 -0.43950266D-02
  0.21436901D-04  0.35232194D-01  0.13039399D-01  0.20289923D-01  0.86241887D-02
 -0.23902016D-03 -0.16134721D-03  0.87207221D-02 -0.16485690D-02 -0.80660779D-03
  0.47537493D-02 -0.15662587D-03 -0.55005216D-04 -0.34039940D-02  0.25383854D-02
 -0.87132331D-04  0.57618250D-03 -0.85117729D-02  0.23612151D-03  0.96357995D-02
  0.89661681D-03  0.25275482D-04  0.81903091D-04 -0.88952460D-01 -0.16409992D+00
 -0.26490815D+00 -0.34483170D+00 -0.29424552D+00 -0.10159591D+00 -0.10214643D+00
 -0.47079197D-01  0.13201498D+00 -0.27905800D-01 -0.21396397D-01 -0.10678302D-01
 -0.21891151D-01 -0.16784746D-01 -0.83767647D-02  0.14953156D-03  0.11465132D-03
  0.57219044D-04  0.22916716D-01  0.54749381D-02  0.14688451D-02 -0.44453597D-04
  0.84782572D-01  0.40660052D-01  0.32470366D-01  0.39456963D-01 -0.78806271D-03
 -0.28914719D-03  0.43640670D-02  0.10311033D-02  0.15148502D-02  0.91735513D-03
 -0.49707163D-04 -0.14080623D-04 -0.68430200D-03  0.65783243D-03 -0.17900117D-04
 -0.48474032D-03 -0.31563329D-02  0.51255768D-04  0.25376463D-02  0.11828356D-02
  0.24445839D-05  0.50410963D-04 -0.62488684D-01 -0.11527942D+00 -0.18609673D+00
 -0.24224265D+00 -0.20670609D+00 -0.71370645D-01 -0.72477278D-01 -0.33404711D-01
  0.93670297D-01  0.14562445D+00  0.11165559D+00  0.55723966D-01  0.55543733D-01
  0.42587411D-01  0.21254103D-01 -0.10942266D-02 -0.83898354D-03 -0.41871159D-03
  0.37870307D-01  0.61328635D-02  0.23733555D-02 -0.45908844D-04  0.58607398D-01
  0.27634545D-01  0.22116016D-01  0.28469481D-01 -0.54472165D-03 -0.21281845D-03
  0.49405569D-02  0.47064325D-03 -0.32970783D-03  0.38919422D-02 -0.79985118D-04
 -0.28660311D-04  0.29973019D-02 -0.20687672D-02  0.50931814D-04 -0.21544561D-02
  0.88930786D-02 -0.16891132D-03 -0.68374495D-02 -0.26867770D-02  0.16115880D-04
 -0.17107728D-03 -0.16172670D-01 -0.27431909D-01 -0.31230259D-01 -0.37401268D-02
  0.13526557D-01  0.32841052D-02 -0.10724986D-03  0.14427319D-01  0.24471464D-01
  0.27859897D-01  0.30915007D-02 -0.66695632D-02  0.76263551D-03  0.65271364D-02
  0.14427327D-01  0.24471478D-01  0.27859913D-01  0.30915374D-02 -0.67928426D-02
  0.83233167D-03 -0.63897842D-02  0.10666067D-01  0.18091668D-01  0.20596725D-01
  0.28349931D-02  0.13831493D-01  0.52942579D-02 -0.10363169D-03
MO    7     MO 0.0        OCC NO =    2.0000000  ORB. ENERGY =   -0.690380
  0.38286760D-01  0.70468077D-01  0.11403065D+00  0.14989648D+00  0.12856534D+00
  0.43958673D-01  0.62557471D-01  0.27913022D-01 -0.82427526D-01 -0.22307903D+00
 -0.17187037D+00 -0.75460348D-01 -0.38434601D+00 -0.29611788D+00 -0.13001170D+00
 -0.12059665D-04 -0.92913219D-05 -0.40793908D-05 -0.36633861D-01 -0.68393441D-02
 -0.18117875D-01 -0.34389969D-04 -0.77807284D-02  0.35112225D-01  0.15306826D-01
 -0.16208918D-01  0.33989753D-03  0.36332614D-03  0.21837158D-02  0.66800059D-02
  0.74420716D-03 -0.20964589D-02 -0.38390873D-04  0.83278711D-04 -0.97499797D-03
 -0.30779244D-02  0.24069312D-04 -0.96742077D-03 -0.19126304D-02  0.88963769D-04
  0.38924147D-02  0.11146404D-01 -0.16117170D-03  0.18978996D-03 -0.72141181D-01
 -0.13308639D+00 -0.21484270D+00 -0.27966136D+00 -0.23863555D+00 -0.82395120D-01
 -0.84233308D-01 -0.38823055D-01  0.10886390D+00 -0.49056101D-03 -0.37613107D-03
 -0.18771576D-03 -0.63061890D-01 -0.48351857D-01 -0.24130966D-01 -0.33789563D-03
 -0.25907693D-03 -0.12929755D-03  0.54611659D-01  0.34218214D-03 -0.47102481D-02
 -0.28635162D-04  0.41511947D-01  0.37494990D-01  0.43696530D-01 -0.47612562D-02
  0.16303978D-04 -0.22424151D-04 -0.40647037D-02 -0.29181139D-02  0.30547553D-04
 -0.56911772D-02  0.47820473D-04  0.21950655D-04  0.18885903D-02 -0.26070908D-03
  0.60391240D-05 -0.36368468D-02  0.33031893D-02 -0.74913082D-04 -0.20289240D-02
 -0.25210620D-02  0.56795710D-04 -0.12911143D-03  0.28797953D-01  0.53126600D-01
  0.85762804D-01  0.11163769D+00  0.95260642D-01  0.32891210D-01  0.28545661D-01
  0.13156669D-01 -0.36892674D-01  0.33642821D+00  0.25795182D+00  0.12873603D+00
  0.12297505D+00  0.94289472D-01  0.47057055D-01 -0.25555436D-02 -0.19594287D-02
 -0.97789227D-03 -0.10872193D-01 -0.11849626D-02 -0.58284343D-03  0.81035197D-05
 -0.25802547D-01 -0.17484343D-01 -0.15718027D-01 -0.10844733D-01  0.13472516D-03
  0.84619879D-04  0.45692783D-02 -0.15114449D-02 -0.86591522D-03  0.24571312D-02
 -0.90733926D-04 -0.30412258D-04  0.44089442D-02 -0.27590033D-02  0.64209632D-04
 -0.47137446D-02  0.11475811D-01 -0.22759124D-03 -0.85130880D-02 -0.31988005D-02
  0.34962338D-04 -0.23979555D-03  0.78251558D-01  0.14435885D+00  0.23303994D+00
  0.30334875D+00  0.25884804D+00  0.89374008D-01  0.92318010D-01  0.42549286D-01
 -0.11931264D+00 -0.11153651D+00 -0.85519118D-01 -0.42680034D-01 -0.47078439D-01
 -0.36096761D-01 -0.18014814D-01  0.81412879D-03  0.62422232D-03  0.31153069D-03
 -0.46860608D-01 -0.16221589D-02 -0.78993621D-03  0.11325870D-04 -0.72534418D-01
 -0.35735928D-01 -0.28564284D-01 -0.34832128D-01  0.65340931D-03  0.25583973D-03
 -0.15035557D-03 -0.13346759D-02 -0.13461732D-02  0.29626228D-03 -0.21193607D-04
 -0.26812340D-05 -0.34206883D-02  0.23826709D-02 -0.57439014D-04  0.25166879D-02
 -0.10233436D-01  0.19113084D-03  0.77453770D-02  0.30854232D-02 -0.18813803D-04
  0.19831216D-03 -0.19121971D-01 -0.32434482D-01 -0.36925512D-01 -0.61620291D-02
  0.14846455D-01  0.26783743D-02 -0.12231044D-03  0.21555240D-01  0.36561766D-01
  0.41624279D-01  0.42366826D-02 -0.74572525D-02  0.47331802D-02  0.13156239D-01
  0.21555130D-01  0.36561581D-01  0.41624067D-01  0.42368039D-02 -0.77065664D-02
  0.48739244D-02 -0.12959387D-01 -0.20414797D-01 -0.34627360D-01 -0.39422025D-01
 -0.44708295D-02 -0.21292114D-01 -0.85310006D-02  0.15739298D-03
MO    8     MO 0.0        OCC NO =    2.0000000  ORB. ENERGY =   -0.531618
 -0.25554937D-01 -0.47034726D-01 -0.76111066D-01 -0.10005013D+00 -0.85812412D-01
 -0.29340721D-01 -0.41873037D-01 -0.18683668D-01  0.55173121D-01 -0.47878503D+00
 -0.36887806D+00 -0.16195734D+00 -0.43835857D-01 -0.33773165D-01 -0.14828239D-01
  0.42487257D-02  0.32734141D-02  0.14372051D-02  0.25569864D-01 -0.21573353D-01
  0.69277683D-02  0.23940082D-03 -0.23494599D-01 -0.16785603D-02 -0.48391326D-02
  0.21543912D-01  0.46163403D-03 -0.17051899D-03 -0.24759868D-02 -0.55740559D-02
 -0.72340892D-03  0.58019893D-02  0.63787402D-04 -0.10658878D-03 -0.16568185D-03