 Title
GAUSSIAN             23 MOL ORBITALS    306 PRIMITIVES       12 NUCLEI
  C    1    (CENTRE  1)   0.18661451  2.73996964 -0.30719126  CHARGE =  6.0
  C    2    (CENTRE  2)   0.68756128 -0.06822798  0.11344280  CHARGE =  6.0
  C    3    (CENTRE  3)   0.98724757 -0.76850691  2.86154303  CHARGE =  6.0
  O    4    (CENTRE  4)   0.85742132  0.69345467  4.61394993  CHARGE =  8.0
  C    5    (CENTRE  5)   1.49715829 -3.56208381  3.46739833  CHARGE =  6.0
  O    6    (CENTRE  6)   1.66540550 -5.18545473  1.88588977  CHARGE =  8.0
  H    7    (CENTRE  7)   1.73419431  3.88794559  0.43763711  CHARGE =  1.0
  H    8    (CENTRE  8)  -0.01706317  3.14718456 -2.32180541  CHARGE =  1.0
  H    9    (CENTRE  9)  -1.54003216  3.33666005  0.65731477  CHARGE =  1.0
  H   10    (CENTRE 10)  -0.82639648 -1.25491827 -0.66656942  CHARGE =  1.0
  H   11    (CENTRE 11)   2.39300491 -0.71238862 -0.87920267  CHARGE =  1.0
  H   12    (CENTRE 12)   1.69374491 -3.91996851  5.52657072  CHARGE =  1.0
CENTRE ASSIGNMENTS    1  1  1  1  1  1  1  1  1  1  1  1  1  1  1  1  1  1  1  1
CENTRE ASSIGNMENTS    1  1  1  1  1  1  1  1  1  1  1  1  1  1  1  1  1  1  1  1
CENTRE ASSIGNMENTS    1  1  1  1  2  2  2  2  2  2  2  2  2  2  2  2  2  2  2  2
CENTRE ASSIGNMENTS    2  2  2  2  2  2  2  2  2  2  2  2  2  2  2  2  2  2  2  2
CENTRE ASSIGNMENTS    2  2  2  2  2  2  2  2  3  3  3  3  3  3  3  3  3  3  3  3
CENTRE ASSIGNMENTS    3  3  3  3  3  3  3  3  3  3  3  3  3  3  3  3  3  3  3  3
CENTRE ASSIGNMENTS    3  3  3  3  3  3  3  3  3  3  3  3  4  4  4  4  4  4  4  4
CENTRE ASSIGNMENTS    4  4  4  4  4  4  4  4  4  4  4  4  4  4  4  4  4  4  4  4
CENTRE ASSIGNMENTS    4  4  4  4  4  4  4  4  4  4  4  4  4  4  4  4  5  5  5  5
CENTRE ASSIGNMENTS    5  5  5  5  5  5  5  5  5  5  5  5  5  5  5  5  5  5  5  5
CENTRE ASSIGNMENTS    5  5  5  5  5  5  5  5  5  5  5  5  5  5  5  5  5  5  5  5
CENTRE ASSIGNMENTS    6  6  6  6  6  6  6  6  6  6  6  6  6  6  6  6  6  6  6  6
CENTRE ASSIGNMENTS    6  6  6  6  6  6  6  6  6  6  6  6  6  6  6  6  6  6  6  6
CENTRE ASSIGNMENTS    6  6  6  6  7  7  7  7  7  7  7  8  8  8  8  8  8  8  9  9
CENTRE ASSIGNMENTS    9  9  9  9  9 10 10 10 10 10 10 10 11 11 11 11 11 11 11 12
CENTRE ASSIGNMENTS   12 12 12 12 12 12
TYPE ASSIGNMENTS      1  1  1  1  1  1  1  1  1  2  2  2  3  3  3  4  4  4  1  2
TYPE ASSIGNMENTS      3  4  5  6  7  8  9 10  5  6  7  8  9 10 11 12 13 17 14 15
TYPE ASSIGNMENTS     18 19 16 20  1  1  1  1  1  1  1  1  1  2  2  2  3  3  3  4
TYPE ASSIGNMENTS      4  4  1  2  3  4  5  6  7  8  9 10  5  6  7  8  9 10 11 12
TYPE ASSIGNMENTS     13 17 14 15 18 19 16 20  1  1  1  1  1  1  1  1  1  2  2  2
TYPE ASSIGNMENTS      3  3  3  4  4  4  1  2  3  4  5  6  7  8  9 10  5  6  7  8
TYPE ASSIGNMENTS      9 10 11 12 13 17 14 15 18 19 16 20  1  1  1  1  1  1  1  1
TYPE ASSIGNMENTS      1  2  2  2  3  3  3  4  4  4  1  2  3  4  5  6  7  8  9 10
TYPE ASSIGNMENTS      5  6  7  8  9 10 11 12 13 17 14 15 18 19 16 20  1  1  1  1
TYPE ASSIGNMENTS      1  1  1  1  1  2  2  2  3  3  3  4  4  4  1  2  3  4  5  6
TYPE ASSIGNMENTS      7  8  9 10  5  6  7  8  9 10 11 12 13 17 14 15 18 19 16 20
TYPE ASSIGNMENTS      1  1  1  1  1  1  1  1  1  2  2  2  3  3  3  4  4  4  1  2
TYPE ASSIGNMENTS      3  4  5  6  7  8  9 10  5  6  7  8  9 10 11 12 13 17 14 15
TYPE ASSIGNMENTS     18 19 16 20  1  1  1  1  2  3  4  1  1  1  1  2  3  4  1  1
TYPE ASSIGNMENTS      1  1  2  3  4  1  1  1  1  2  3  4  1  1  1  1  2  3  4  1
TYPE ASSIGNMENTS      1  1  1  2  3  4
EXPONENTS  0.3047525D+04 0.4573695D+03 0.1039487D+03 0.2921016D+02 0.9286663D+01
EXPONENTS  0.3163927D+01 0.7868272D+01 0.1881289D+01 0.5442493D+00 0.7868272D+01
EXPONENTS  0.1881289D+01 0.5442493D+00 0.7868272D+01 0.1881289D+01 0.5442493D+00
EXPONENTS  0.7868272D+01 0.1881289D+01 0.5442493D+00 0.1687145D+00 0.1687145D+00
EXPONENTS  0.1687145D+00 0.1687145D+00 0.1600000D+01 0.1600000D+01 0.1600000D+01
EXPONENTS  0.1600000D+01 0.1600000D+01 0.1600000D+01 0.4000000D+00 0.4000000D+00
EXPONENTS  0.4000000D+00 0.4000000D+00 0.4000000D+00 0.4000000D+00 0.8000000D+00
EXPONENTS  0.8000000D+00 0.8000000D+00 0.8000000D+00 0.8000000D+00 0.8000000D+00
EXPONENTS  0.8000000D+00 0.8000000D+00 0.8000000D+00 0.8000000D+00 0.3047525D+04
EXPONENTS  0.4573695D+03 0.1039487D+03 0.2921016D+02 0.9286663D+01 0.3163927D+01
EXPONENTS  0.7868272D+01 0.1881289D+01 0.5442493D+00 0.7868272D+01 0.1881289D+01
EXPONENTS  0.5442493D+00 0.7868272D+01 0.1881289D+01 0.5442493D+00 0.7868272D+01
EXPONENTS  0.1881289D+01 0.5442493D+00 0.1687145D+00 0.1687145D+00 0.1687145D+00
EXPONENTS  0.1687145D+00 0.1600000D+01 0.1600000D+01 0.1600000D+01 0.1600000D+01
EXPONENTS  0.1600000D+01 0.1600000D+01 0.4000000D+00 0.4000000D+00 0.4000000D+00
EXPONENTS  0.4000000D+00 0.4000000D+00 0.4000000D+00 0.8000000D+00 0.8000000D+00
EXPONENTS  0.8000000D+00 0.8000000D+00 0.8000000D+00 0.8000000D+00 0.8000000D+00
EXPONENTS  0.8000000D+00 0.8000000D+00 0.8000000D+00 0.3047525D+04 0.4573695D+03
EXPONENTS  0.1039487D+03 0.2921016D+02 0.9286663D+01 0.3163927D+01 0.7868272D+01
EXPONENTS  0.1881289D+01 0.5442493D+00 0.7868272D+01 0.1881289D+01 0.5442493D+00
EXPONENTS  0.7868272D+01 0.1881289D+01 0.5442493D+00 0.7868272D+01 0.1881289D+01
EXPONENTS  0.5442493D+00 0.1687145D+00 0.1687145D+00 0.1687145D+00 0.1687145D+00
EXPONENTS  0.1600000D+01 0.1600000D+01 0.1600000D+01 0.1600000D+01 0.1600000D+01
EXPONENTS  0.1600000D+01 0.4000000D+00 0.4000000D+00 0.4000000D+00 0.4000000D+00
EXPONENTS  0.4000000D+00 0.4000000D+00 0.8000000D+00 0.8000000D+00 0.8000000D+00
EXPONENTS  0.8000000D+00 0.8000000D+00 0.8000000D+00 0.8000000D+00 0.8000000D+00
EXPONENTS  0.8000000D+00 0.8000000D+00 0.5484672D+04 0.8252349D+03 0.1880470D+03
EXPONENTS  0.5296450D+02 0.1689757D+02 0.5799635D+01 0.1553962D+02 0.3599934D+01
EXPONENTS  0.1013762D+01 0.1553962D+02 0.3599934D+01 0.1013762D+01 0.1553962D+02
EXPONENTS  0.3599934D+01 0.1013762D+01 0.1553962D+02 0.3599934D+01 0.1013762D+01
EXPONENTS  0.2700058D+00 0.2700058D+00 0.2700058D+00 0.2700058D+00 0.1600000D+01
EXPONENTS  0.1600000D+01 0.1600000D+01 0.1600000D+01 0.1600000D+01 0.1600000D+01
EXPONENTS  0.4000000D+00 0.4000000D+00 0.4000000D+00 0.4000000D+00 0.4000000D+00
EXPONENTS  0.4000000D+00 0.1400000D+01 0.1400000D+01 0.1400000D+01 0.1400000D+01
EXPONENTS  0.1400000D+01 0.1400000D+01 0.1400000D+01 0.1400000D+01 0.1400000D+01
EXPONENTS  0.1400000D+01 0.3047525D+04 0.4573695D+03 0.1039487D+03 0.2921016D+02
EXPONENTS  0.9286663D+01 0.3163927D+01 0.7868272D+01 0.1881289D+01 0.5442493D+00
EXPONENTS  0.7868272D+01 0.1881289D+01 0.5442493D+00 0.7868272D+01 0.1881289D+01
EXPONENTS  0.5442493D+00 0.7868272D+01 0.1881289D+01 0.5442493D+00 0.1687145D+00
EXPONENTS  0.1687145D+00 0.1687145D+00 0.1687145D+00 0.1600000D+01 0.1600000D+01
EXPONENTS  0.1600000D+01 0.1600000D+01 0.1600000D+01 0.1600000D+01 0.4000000D+00
EXPONENTS  0.4000000D+00 0.4000000D+00 0.4000000D+00 0.4000000D+00 0.4000000D+00
EXPONENTS  0.8000000D+00 0.8000000D+00 0.8000000D+00 0.8000000D+00 0.8000000D+00
EXPONENTS  0.8000000D+00 0.8000000D+00 0.8000000D+00 0.8000000D+00 0.8000000D+00
EXPONENTS  0.5484672D+04 0.8252349D+03 0.1880470D+03 0.5296450D+02 0.1689757D+02
EXPONENTS  0.5799635D+01 0.1553962D+02 0.3599934D+01 0.1013762D+01 0.1553962D+02
EXPONENTS  0.3599934D+01 0.1013762D+01 0.1553962D+02 0.3599934D+01 0.1013762D+01
EXPONENTS  0.1553962D+02 0.3599934D+01 0.1013762D+01 0.2700058D+00 0.2700058D+00
EXPONENTS  0.2700058D+00 0.2700058D+00 0.1600000D+01 0.1600000D+01 0.1600000D+01
EXPONENTS  0.1600000D+01 0.1600000D+01 0.1600000D+01 0.4000000D+00 0.4000000D+00
EXPONENTS  0.4000000D+00 0.4000000D+00 0.4000000D+00 0.4000000D+00 0.1400000D+01
EXPONENTS  0.1400000D+01 0.1400000D+01 0.1400000D+01 0.1400000D+01 0.1400000D+01
EXPONENTS  0.1400000D+01 0.1400000D+01 0.1400000D+01 0.1400000D+01 0.1873114D+02
EXPONENTS  0.2825394D+01 0.6401217D+00 0.1612778D+00 0.1100000D+01 0.1100000D+01
EXPONENTS  0.1100000D+01 0.1873114D+02 0.2825394D+01 0.6401217D+00 0.1612778D+00
EXPONENTS  0.1100000D+01 0.1100000D+01 0.1100000D+01 0.1873114D+02 0.2825394D+01
EXPONENTS  0.6401217D+00 0.1612778D+00 0.1100000D+01 0.1100000D+01 0.1100000D+01
EXPONENTS  0.1873114D+02 0.2825394D+01 0.6401217D+00 0.1612778D+00 0.1100000D+01
EXPONENTS  0.1100000D+01 0.1100000D+01 0.1873114D+02 0.2825394D+01 0.6401217D+00
EXPONENTS  0.1612778D+00 0.1100000D+01 0.1100000D+01 0.1100000D+01 0.1873114D+02
EXPONENTS  0.2825394D+01 0.6401217D+00 0.1612778D+00 0.1100000D+01 0.1100000D+01
EXPONENTS  0.1100000D+01
MO    1     MO 0.0        OCC NO =    2.0000000  ORB. ENERGY =  -19.172338
 -0.84407179D-05 -0.15571476D-04 -0.25137191D-04 -0.32721154D-04 -0.27921020D-04
 -0.96404572D-05  0.49399596D-04  0.22768229D-04 -0.63844490D-04 -0.38660789D-06
 -0.29642641D-06 -0.14793755D-06 -0.90664476D-07 -0.69515770D-07 -0.34693241D-07
 -0.59554797D-05 -0.45662841D-05 -0.22788958D-05  0.88012570D-04  0.64833068D-05
 -0.31281897D-04  0.18222274D-04  0.46200277D-04  0.15901144D-04  0.37593399D-04
  0.12191792D-04 -0.52913568D-05  0.23887687D-04 -0.13318381D-04  0.63654920D-05
 -0.70816749D-05 -0.81018992D-05  0.39724522D-05 -0.18084478D-04 -0.32183566D-05
 -0.53596160D-05 -0.18100589D-07  0.95523208D-05  0.18591979D-04  0.26922814D-05
  0.10274891D-06 -0.25131306D-05 -0.26379796D-05 -0.14129859D-05 -0.10205705D-06
 -0.18827533D-06 -0.30393476D-06 -0.39563275D-06 -0.33759415D-06 -0.11656315D-06
  0.63740316D-04  0.29377853D-04 -0.82378567D-04 -0.88592532D-05 -0.67927134D-05
 -0.33900401D-05  0.27522297D-04  0.21102352D-04  0.10531552D-04 -0.63790014D-04
 -0.48910137D-04 -0.24409586D-04 -0.35862012D-04  0.11009580D-04 -0.60588798D-04
  0.11900755D-04  0.12754160D-03  0.89617389D-04  0.11841938D-03  0.22126655D-04
 -0.23074102D-04  0.12786290D-03 -0.29549705D-05  0.26446317D-04 -0.44989155D-04
 -0.15764600D-04  0.81279770D-05 -0.80187251D-04 -0.78675933D-05 -0.18607413D-04
 -0.72635942D-04  0.46545980D-04  0.74971127D-04  0.90069858D-04 -0.22943200D-04
 -0.19148887D-04  0.12783797D-03 -0.26830519D-04  0.22489236D-04  0.41488248D-04
  0.66974897D-04  0.87181415D-04  0.74392060D-04  0.25685790D-04 -0.26037883D-03
 -0.12000836D-03  0.33651598D-03  0.37393084D-04  0.28670645D-04  0.14308661D-04
 -0.19599409D-03 -0.15027583D-03 -0.74998174D-04  0.66951569D-04  0.51334217D-04
  0.25619372D-04  0.14182694D-05  0.93178477D-05 -0.43157976D-04  0.31245303D-04
 -0.46501602D-03 -0.19762046D-03 -0.29652344D-03 -0.75439087D-04 -0.18704703D-04
  0.24817758D-03  0.37152838D-05  0.16566199D-03 -0.27547205D-04 -0.68454394D-04
  0.26616006D-04 -0.17756737D-03  0.36698371D-05 -0.63727867D-04 -0.81036319D-04
  0.41754731D-04 -0.27569995D-04 -0.44700381D-06 -0.52764242D-04  0.21875360D-03
  0.24355596D-03 -0.50720776D-04 -0.43412949D-04 -0.79903001D-04 -0.12929814D-03
 -0.16996602D-03 -0.14577887D-03 -0.49844271D-04  0.38649808D-04  0.17245469D-04
 -0.50926100D-04  0.88335036D-05  0.68057383D-05  0.29880857D-05 -0.20195043D-04
 -0.15559192D-04 -0.68313232D-05  0.82355192D-04  0.63450236D-04  0.27858071D-04
  0.45994479D-04  0.12516121D-05  0.10342091D-04  0.45119463D-04 -0.25026457D-04
 -0.10566549D-04 -0.97833490D-04 -0.10060345D-04  0.28867841D-05 -0.73688540D-04
 -0.10810836D-04 -0.11633737D-04 -0.72484920D-04 -0.16771779D-05 -0.32272997D-05
 -0.29356851D-04 -0.76393194D-05 -0.69072909D-04  0.72268483D-04  0.27456014D-04
 -0.11656818D-04 -0.13602711D-03 -0.45380559D-05  0.21887554D-03 -0.80778341D-04
  0.11452855D-04 -0.80407306D-05 -0.14833578D-04 -0.23945994D-04 -0.31170569D-04
 -0.26597903D-04 -0.91836168D-05  0.17262167D-03  0.79561171D-04 -0.22309783D-03
  0.43753631D-04  0.33547509D-04  0.16742558D-04 -0.39714090D-03 -0.30450246D-03
 -0.15196807D-03 -0.34772717D-03 -0.26661514D-03 -0.13305964D-03  0.45596343D-03
  0.18146504D-04 -0.12289953D-03 -0.38099430D-04  0.41393428D-03  0.35069541D-03
  0.24335385D-03  0.11190273D-04  0.35676552D-05 -0.15623071D-03 -0.33693283D-04
 -0.27916241D-03 -0.18857987D-03  0.78040668D-04 -0.42044882D-05 -0.10230257D-03
  0.49091022D-04 -0.20179472D-03 -0.23057377D-03  0.26387313D-04 -0.43394050D-03
 -0.34604630D-03 -0.17366038D-03  0.10393247D-02  0.10377676D-02 -0.27376327D-03
  0.82878836D+00  0.15254130D+01  0.24684062D+01  0.32447891D+01  0.27830367D+01
  0.95156752D+00 -0.38266504D-01 -0.17074440D-01  0.50421049D-01 -0.38981086D-03
 -0.30032825D-03 -0.13186028D-03  0.37028648D-02  0.28528577D-02  0.12525582D-02
  0.35161291D-02  0.27089879D-02  0.11893916D-02 -0.16646110D-01  0.34534016D-04
 -0.32603264D-03 -0.30638792D-03 -0.19622716D-01 -0.18717867D-01 -0.18775320D-01
 -0.18543019D-03 -0.19618378D-03  0.18413379D-02  0.58352374D-02  0.57055764D-02
  0.57305931D-02  0.27820617D-04  0.27258633D-04 -0.24566609D-03 -0.88906931D-05
 -0.58036395D-04 -0.38921640D-04  0.57128010D-04  0.50974963D-04  0.15598642D-04
 -0.30455930D-04  0.12313422D-03  0.10116628D-03 -0.20929103D-04 -0.22030908D-05
 -0.37368589D-05 -0.42542818D-05 -0.23744295D-05 -0.26334871D-05 -0.43863308D-05
 -0.64361131D-05 -0.13108111D-06 -0.22233837D-06 -0.25312437D-06  0.52319965D-05
  0.11527983D-05 -0.56564499D-05  0.30718298D-05 -0.22050642D-05 -0.37402062D-05
 -0.42580925D-05 -0.23664522D-05  0.30740922D-05 -0.34359779D-05 -0.68200380D-05
  0.45518253D-05  0.77207572D-05  0.87898091D-05  0.16682929D-04  0.66018751D-04
  0.41961557D-04  0.12055929D-04  0.45316425D-05  0.76865235D-05  0.87508353D-05
  0.16642906D-04 -0.73935028D-04  0.18429446D-04  0.21240183D-04  0.77510937D-04
  0.13147322D-03  0.14967761D-03 -0.35206908D-04 -0.31906132D-04  0.62937125D-04
 -0.32187642D-03
MO    2     MO 0.0        OCC NO =    2.0000000  ORB. ENERGY =  -19.161106
 -0.52744444D-05 -0.97303201D-05 -0.15707754D-04 -0.20446828D-04 -0.17447315D-04
 -0.60241387D-05  0.56948977D-04  0.26247731D-04 -0.73601378D-04 -0.78653483D-05
 -0.60306502D-05 -0.30097171D-05  0.38755653D-04  0.29715377D-04  0.14830056D-04
 -0.19997122D-04 -0.15332525D-04 -0.76520044D-05  0.49179788D-04  0.77721603D-05
 -0.30415088D-04  0.39090149D-04  0.58719863D-04  0.42936961D-04  0.44996753D-04
  0.11001768D-04 -0.15424729D-04  0.78855797D-04 -0.14616207D-04 -0.36115637D-04
  0.21943992D-04  0.21294267D-05  0.17774611D-04 -0.75731167D-04  0.63328237D-05
  0.56629975D-04  0.28356744D-05 -0.47150284D-04 -0.57068544D-04 -0.58523384D-04
  0.28151813D-04 -0.11282138D-03  0.50016361D-04 -0.44472211D-04  0.13944439D-04
  0.25724767D-04  0.41527750D-04  0.54056791D-04  0.46126758D-04  0.15926461D-04
 -0.21598571D-03 -0.99547618D-04  0.27914191D-03  0.18230253D-04  0.13977802D-04
  0.69759028D-05 -0.21994055D-04 -0.16863646D-04 -0.84161413D-05  0.21944717D-03
  0.16825817D-03  0.83972620D-04 -0.12299990D-03  0.72865915D-05 -0.52306736D-04
 -0.22982909D-04 -0.44845141D-03 -0.34451076D-03 -0.10231134D-03 -0.25105003D-04
  0.18840250D-04  0.16242996D-03  0.25305259D-04  0.55890984D-05  0.50150052D-04
 -0.41741205D-05  0.29733605D-04 -0.15612628D-03  0.77155484D-05  0.67963332D-04
  0.50680100D-04 -0.59711469D-04 -0.28560303D-04  0.20038639D-04  0.36564824D-04
 -0.17532969D-03 -0.17207894D-03  0.47679905D-04 -0.14147157D-04 -0.26098742D-04
 -0.42131462D-04 -0.54842645D-04 -0.46797328D-04 -0.16157993D-04  0.13470826D-03
  0.62086914D-04 -0.17409819D-03 -0.30875879D-04 -0.23673666D-04 -0.11814818D-04
  0.34006391D-03  0.26073944D-03  0.13012725D-03  0.39760657D-03  0.30485950D-03
  0.15214626D-03  0.51427768D-03 -0.70773418D-05  0.60138893D-04  0.45783940D-04
  0.26874413D-03  0.20218577D-03  0.21575164D-03  0.31362995D-04 -0.27310185D-04
  0.11776699D-03 -0.58777601D-04 -0.17234374D-03 -0.23748003D-03  0.23278751D-04
  0.15292678D-04 -0.23271380D-03 -0.38669177D-04  0.25180937D-03  0.76156943D-04
 -0.36280289D-04  0.40614825D-03  0.43813007D-03  0.15228782D-03 -0.11615764D-02
 -0.66660090D-03  0.16505116D-03  0.82879312D+00  0.15254218D+01  0.24684204D+01
  0.32448077D+01  0.27830527D+01  0.95157297D+00 -0.38264085D-01 -0.17073360D-01
  0.50417862D-01  0.28495816D-03  0.21954490D-03  0.96392036D-04 -0.32314431D-02
 -0.24896527D-02 -0.10930916D-02 -0.39032899D-02 -0.30072744D-02 -0.13203554D-02
 -0.16629189D-01 -0.23506079D-04  0.27720135D-03  0.34904087D-03 -0.19591119D-01
 -0.18869599D-01 -0.18567459D-01 -0.12847940D-03 -0.15855686D-03  0.17534316D-02
  0.58500130D-02  0.57446179D-02  0.56905168D-02  0.19985027D-04  0.18949164D-04
 -0.23912044D-03  0.37862153D-05  0.44152789D-04  0.60476794D-04 -0.49386362D-04
 -0.54750730D-04 -0.95026522D-04  0.38027716D-04 -0.77707638D-04 -0.86403860D-04
 -0.57203781D-05 -0.18149501D-05 -0.33482285D-05 -0.54050789D-05 -0.70358068D-05
 -0.60036667D-05 -0.20729218D-05 -0.12019636D-03 -0.55398393D-04  0.15534288D-03
 -0.25347301D-04 -0.19434703D-04 -0.96992789D-05  0.13136296D-03  0.10072079D-03
  0.50266732D-04 -0.49206647D-04 -0.37728536D-04 -0.18829184D-04 -0.69113274D-04
 -0.70794797D-05  0.55760765D-04  0.34742879D-04 -0.33325472D-03 -0.36268878D-04
 -0.27718534D-03 -0.86934855D-04 -0.29989216D-04  0.22743092D-03 -0.16061932D-04
  0.90286249D-05  0.51659945D-05 -0.20931807D-04  0.32482190D-04 -0.17417980D-03
 -0.70900383D-05 -0.12375571D-05  0.11799111D-03 -0.91611319D-05  0.42566286D-04
 -0.97424713D-05  0.30431247D-04 -0.38853615D-04 -0.34423086D-03  0.10434410D-03
  0.36538001D-04  0.67249427D-04  0.10882227D-03  0.14304992D-03  0.12269308D-03
  0.41950848D-04 -0.26352843D-04 -0.11758587D-04  0.34723265D-04 -0.12010132D-04
 -0.92531589D-05 -0.40626352D-05  0.37012294D-04  0.28515977D-04  0.12520050D-04
 -0.87312461D-04 -0.67269544D-04 -0.29534953D-04  0.91723846D-04 -0.11322117D-05
  0.19542208D-04  0.32484022D-04 -0.41381143D-04  0.21571463D-04 -0.12327431D-03
 -0.29788813D-04  0.89996178D-05 -0.11584372D-03  0.30534659D-04  0.11310876D-04
  0.89726098D-05  0.63786492D-05 -0.21886604D-05 -0.44358440D-05  0.36508300D-06
  0.59789540D-04 -0.34008303D-04 -0.17233127D-04  0.43217598D-04  0.11034409D-03
  0.16137878D-04 -0.22258622D-03 -0.83191835D-05  0.49173635D-05  0.12943029D-05
  0.21953826D-05  0.24993655D-05  0.17832689D-04 -0.58010393D-04 -0.29711203D-04
 -0.10721393D-04 -0.19797950D-05 -0.33581071D-05 -0.38230862D-05  0.20351647D-04
  0.15841337D-05 -0.54495788D-05  0.96859888D-05  0.13524211D-05  0.22939622D-05
  0.26115949D-05  0.17917497D-04  0.62815774D-04 -0.95474435D-05 -0.18673894D-04
 -0.59826839D-05 -0.10147764D-04 -0.11552871D-04 -0.79869992D-05 -0.19053055D-04
 -0.27012441D-04 -0.53961394D-04 -0.59979575D-05 -0.10173671D-04 -0.11582365D-04
 -0.80007062D-05  0.19769954D-04 -0.20460509D-04 -0.56600402D-04 -0.32698791D-04
 -0.55463338D-04 -0.63143050D-04  0.20490388D-04 -0.71804525D-05  0.79505558D-04
  0.93425883D-04
MO    3     MO 0.0        OCC NO =    2.0000000  ORB. ENERGY =  -10.289597
  0.73724170D-05  0.13600670D-04  0.21955698D-04  0.28579795D-04  0.24387191D-04
  0.84203111D-05 -0.45638078D-04 -0.21034548D-04  0.58983069D-04  0.52198377D-05
  0.40022405D-05  0.19973985D-05 -0.39975898D-04 -0.30650983D-04 -0.15296989D-04
 -0.23072290D-04 -0.17690369D-04 -0.88287339D-05 -0.98403730D-04 -0.34961497D-05
  0.14029160D-04 -0.16730089D-04 -0.48744499D-04 -0.50917900D-04 -0.47508926D-04
  0.13662942D-05 -0.14876895D-05  0.10013189D-04 -0.15387846D-05  0.38157883D-04
 -0.18823715D-04 -0.12162342D-04 -0.59261577D-05  0.22001490D-04 -0.64941064D-05
 -0.31340179D-04 -0.42457044D-06  0.28578781D-04  0.28627996D-04 -0.14625002D-04
 -0.90964613D-05  0.65392543D-04  0.15898714D-04 -0.63722876D-05 -0.12104994D-04
 -0.22331350D-04 -0.36049723D-04 -0.46926028D-04 -0.40042065D-04 -0.13825563D-04
  0.18461297D-03  0.85087948D-04 -0.23859549D-03 -0.12466705D-04 -0.95586785D-05
 -0.47704505D-05  0.70404428D-04  0.53981650D-04  0.26940627D-04 -0.88339131D-05
 -0.67732843D-05 -0.33803436D-05  0.53285864D-04 -0.21180960D-04  0.12821493D-03
  0.57300397D-05  0.39668772D-03  0.16623542D-03  0.19802585D-03  0.58650950D-04
  0.24716272D-04 -0.30651879D-03 -0.56499972D-04 -0.66711405D-04  0.11583012D-03
  0.26191052D-04 -0.32416577D-04  0.32608322D-03 -0.80147765D-05 -0.74673121D-04
  0.17044844D-03  0.69024090D-05 -0.30632333D-04 -0.20200892D-03  0.17141921D-04
  0.25465170D-03 -0.30933641D-03  0.75176107D-04  0.18891388D-01  0.34850921D-01
  0.56260193D-01  0.73234055D-01  0.62490751D-01  0.21576555D-01  0.35051368D-03
  0.16155143D-03 -0.45300709D-03  0.35705921D-04  0.27377035D-04  0.13663059D-04
 -0.23244215D-03 -0.17822190D-03 -0.88945218D-04 -0.51050259D-04 -0.39142101D-04
 -0.19534652D-04 -0.30180049D-03  0.90251642D-08 -0.84227550D-04 -0.21377864D-03
  0.19324635D-02  0.22717868D-02  0.13173389D-02 -0.14854432D-03 -0.29002696D-05
 -0.45735408D-03 -0.27252969D-05 -0.77522506D-03  0.26872527D-03  0.28689173D-03
 -0.15078067D-04  0.28406117D-03  0.12596396D-03  0.56920987D-03  0.23611789D-03
 -0.59245428D-03 -0.61734732D-03  0.10128588D-03  0.21456242D-03 -0.10902823D-02
 -0.80963954D-03  0.26685880D-03  0.83497284D-04  0.15367957D-03  0.24868256D-03
  0.32690019D-03  0.28038039D-03  0.95866817D-04 -0.41454605D-03 -0.18496964D-03
  0.54621782D-03 -0.38437899D-04 -0.29614329D-04 -0.13002286D-04  0.11512601D-03
  0.88698386D-04  0.38943369D-04 -0.28823355D-03 -0.22206841D-03 -0.97499993D-04
 -0.92675263D-04 -0.25595811D-04  0.12511361D-05 -0.38339984D-03  0.16223754D-03
 -0.47396126D-05  0.19466772D-03  0.78804066D-04 -0.47312856D-04  0.30036585D-03
  0.18670452D-03  0.10847589D-03  0.48789222D-03  0.33109072D-04  0.24053056D-04
  0.92576230D-04 -0.45887263D-05  0.23704014D-03 -0.10897238D-03 -0.84967350D-04
  0.66152923D-04  0.98453234D-04  0.98733529D-04 -0.77727335D-03  0.22846389D-03
 -0.16119152D-03  0.53220772D+00  0.98181933D+00  0.15849608D+01  0.20631481D+01
  0.17604880D+01  0.60785419D+00 -0.71998305D-02 -0.33183953D-02  0.93051268D-02
  0.16762003D-04  0.12852040D-04  0.64140689D-05 -0.60036845D-03 -0.46032445D-03
 -0.22973416D-03 -0.12711355D-02 -0.97462611D-03 -0.48640674D-03  0.22720366D-02
 -0.63864736D-05  0.11634397D-03  0.19895180D-03  0.13946282D-01  0.16597779D-01
  0.16300087D-01 -0.75229526D-03 -0.85920087D-04  0.24126622D-02 -0.22127795D-02
 -0.18037582D-02 -0.18056131D-02 -0.15179049D-03  0.78937000D-04 -0.13651631D-03
 -0.45232152D-04  0.37470883D-03  0.64188641D-03 -0.25192066D-03  0.17548563D-03
 -0.30577042D-03  0.38761711D-03 -0.12996121D-02 -0.16198888D-02  0.24980786D-03
 -0.13956526D-03 -0.25687458D-03 -0.41567155D-03 -0.54641189D-03 -0.46865431D-03
 -0.16024087D-03 -0.33416270D-03 -0.14910275D-03  0.44030241D-03  0.99368841D-04
  0.76558335D-04  0.33613233D-04 -0.90213347D-03 -0.69504520D-03 -0.30516228D-03
 -0.79018391D-03 -0.60879410D-03 -0.26729340D-03 -0.38854261D-03  0.20076716D-04
 -0.23376577D-03 -0.29039433D-03  0.80563364D-04 -0.59878023D-03 -0.57751062D-03
  0.13775943D-03  0.14797515D-03 -0.14035645D-02  0.17893903D-03 -0.95841533D-04
 -0.13099603D-03  0.52074983D-04  0.63026524D-04 -0.62074474D-03 -0.18691541D-05
  0.24536576D-03  0.15008586D-03 -0.13606469D-03  0.13044622D-03  0.24887912D-03
  0.14167215D-03 -0.86654350D-03 -0.69913670D-03  0.19294928D-03  0.77296676D-06
  0.13110979D-05  0.14926386D-05  0.56522229D-05  0.11302197D-04  0.66544826D-05
  0.15181491D-04  0.43270094D-05  0.73394269D-05  0.83556781D-05 -0.99092482D-06
  0.14070245D-06 -0.34507419D-06  0.12843869D-05  0.76751971D-06  0.13018587D-05
  0.14821201D-05  0.56399101D-05 -0.10813842D-04  0.29432639D-05  0.16657861D-04
 -0.78897325D-06 -0.13382480D-05 -0.15235480D-05 -0.26365125D-04 -0.10352536D-03
 -0.20689144D-04  0.63667081D-05 -0.73396119D-06 -0.12449371D-05 -0.14173169D-05
 -0.26373188D-04  0.10431908D-03  0.14348002D-04 -0.73272084D-05 -0.17040160D-03
 -0.28903337D-03 -0.32905427D-03 -0.28349925D-03  0.14276351D-03 -0.21281241D-03
  0.16149350D-02
MO    4     MO 0.0        OCC NO =    2.0000000  ORB. ENERGY =  -10.286751
 -0.21759834D-06 -0.40142645D-06 -0.64802676D-06 -0.84353829D-06 -0.71979275D-06
 -0.24852714D-06  0.57051924D-04  0.26295179D-04 -0.73734428D-04 -0.11477404D-04
 -0.88001453D-05 -0.43918893D-05  0.28374505D-04  0.21755771D-04  0.10857654D-04
 -0.10067751D-03 -0.77193129D-04 -0.38524782D-04 -0.16288428D-03 -0.13362589D-04
  0.64216336D-04 -0.36547398D-04  0.33637102D-03  0.21185884D-03  0.12399952D-03
  0.47618779D-04 -0.38588371D-04  0.59132110D-04 -0.13897239D-05  0.10317077D-03
  0.24108684D-04 -0.26516051D-04 -0.20325788D-04  0.14073892D-03 -0.31517236D-04
 -0.12805068D-03  0.86935845D-04  0.11261724D-03  0.16864326D-03 -0.13898254D-04
 -0.18065528D-04  0.21550878D-03 -0.24690928D-03  0.83490978D-04  0.76092963D-03
  0.14037666D-02  0.22661145D-02  0.29498078D-02  0.25170763D-02  0.86908597D-03
  0.56035893D-03  0.25826892D-03 -0.72421301D-03  0.71409231D-05  0.54752069D-05
  0.27325120D-05 -0.55715260D-04 -0.42718927D-04 -0.21319739D-04 -0.32885590D-04
 -0.25214585D-04 -0.12583845D-04  0.22787487D-03 -0.28851456D-04  0.92825049D-04
 -0.20128405D-03  0.12379209D-02  0.87867442D-03  0.13244952D-02  0.10626415D-03
  0.53807362D-04 -0.25734032D-03 -0.17720862D-05  0.11414068D-03 -0.54759561D-03
 -0.16869108D-04 -0.12662416D-03  0.32088615D-03  0.10907341D-03 -0.20654986D-03
 -0.68319635D-03  0.87974806D-04 -0.25541637D-03  0.95573876D-03 -0.41519503D-03
  0.87506594D-03  0.10938503D-02  0.11934742D-03  0.53220803D+00  0.98181989D+00
  0.15849617D+01  0.20631492D+01  0.17604890D+01  0.60785454D+00 -0.75340202D-02
 -0.34724230D-02  0.97370366D-02 -0.18010071D-04 -0.13808980D-04 -0.68916490D-05
  0.46502171D-03  0.35654915D-03  0.17794301D-03  0.90794549D-03  0.69615502D-03
  0.34743014D-03  0.23413941D-02  0.74062986D-05 -0.99295814D-04 -0.14009781D-03
  0.13040779D-01  0.15551637D-01  0.16285829D-01 -0.73596909D-03  0.10681045D-03
  0.19709875D-02 -0.21991543D-02 -0.18784439D-02 -0.19799459D-02 -0.12486913D-03
  0.63176926D-04 -0.19286155D-03  0.12040978D-04 -0.46399264D-03 -0.35703591D-03
  0.28643686D-03 -0.11042053D-03 -0.16235318D-04 -0.32255980D-03  0.15023985D-02
  0.10873431D-02 -0.16161716D-03 -0.11930027D-03 -0.21957617D-03 -0.35531570D-03
 -0.46707243D-03 -0.40060531D-03 -0.13697376D-03 -0.38272489D-03 -0.17077110D-03
  0.50428934D-03 -0.49168563D-04 -0.37881727D-04 -0.16632118D-04  0.63950312D-03
  0.49270268D-03  0.21632301D-03  0.88145722D-03  0.67911527D-03  0.29816818D-03
 -0.37179253D-03 -0.12442210D-04  0.17523028D-03  0.25735097D-03  0.15635317D-03
 -0.45247136D-03 -0.76760029D-03  0.11677151D-03  0.10579524D-03 -0.13618317D-02
  0.16876382D-03 -0.67806788D-05 -0.17184783D-03  0.19587560D-04  0.55005382D-04
 -0.59500745D-03  0.16703482D-04 -0.29879351D-03 -0.68818992D-04  0.11219010D-03
 -0.23827226D-03 -0.32172615D-03 -0.16230055D-03  0.11346528D-02  0.52818313D-03
 -0.10575338D-03 -0.18921447D-01 -0.34906374D-01 -0.56349711D-01 -0.73350581D-01
 -0.62590184D-01 -0.21610886D-01  0.67245812D-03  0.30993533D-03 -0.86909103D-03
 -0.42612534D-04 -0.32672588D-04 -0.16305911D-04  0.30663308D-03  0.23510680D-03
  0.11733477D-03  0.13511256D-03  0.10359574D-03  0.51701536D-04 -0.42718695D-03
  0.17703492D-04 -0.91291296D-04  0.35386625D-04  0.92541618D-03  0.96288817D-03
  0.24793938D-03 -0.42513372D-04 -0.15968832D-04 -0.43619985D-03  0.19474088D-03
 -0.48452444D-03  0.41263960D-03  0.25022078D-03 -0.10987749D-04  0.22002835D-03
 -0.13419714D-03 -0.54586658D-03 -0.37642468D-03  0.62575438D-03  0.65752521D-03
 -0.93282337D-04 -0.22316296D-03  0.98007452D-03  0.12225564D-02 -0.42916999D-03
  0.57877015D-04  0.10652460D-03  0.17237692D-03  0.22659428D-03  0.19434860D-03
  0.66451086D-04 -0.20674321D-03 -0.92248418D-04  0.27241081D-03  0.35928768D-05
  0.27681179D-05  0.12153529D-05  0.15425461D-03  0.11884486D-03  0.52179297D-04
  0.44568185D-03  0.34337384D-03  0.15075961D-03 -0.73193225D-04  0.24337969D-04
 -0.37449087D-04  0.27257119D-03  0.24348308D-03  0.21145788D-03  0.17437163D-03
  0.42502929D-04 -0.85065614D-04  0.44632826D-03  0.41607224D-04 -0.38186466D-04
  0.31204301D-03  0.39625516D-04  0.55789062D-05  0.17734125D-03 -0.10913130D-04
 -0.30716044D-03 -0.73417674D-04  0.20065424D-03  0.71273026D-04  0.61806573D-04
 -0.16791485D-03  0.85020829D-03  0.15844645D-03  0.71706970D-04  0.65827240D-05
  0.11165546D-04  0.12711579D-04 -0.25135415D-04  0.82326059D-04  0.99463976D-05
 -0.23532740D-04  0.50717060D-05  0.86025732D-05  0.97937256D-05 -0.24507636D-04
 -0.19049474D-05  0.19133156D-04  0.20498903D-04  0.64487295D-05  0.10938266D-04
  0.12452829D-04 -0.25297115D-04 -0.83779585D-04 -0.17694624D-04 -0.12537718D-04
  0.40422795D-05  0.68564712D-05  0.78058501D-05 -0.10666920D-03  0.14356352D-03
  0.26224519D-03 -0.19469521D-03  0.40127891D-05  0.68064499D-05  0.77489026D-05
 -0.10676410D-03 -0.24487400D-03  0.19667839D-03 -0.16901572D-03 -0.20262717D-05
 -0.34369402D-05 -0.39128350D-05 -0.27933216D-04  0.43485071D-04 -0.36005897D-03
 -0.25762279D-03
MO    5     MO 0.0        OCC NO =    2.0000000  ORB. ENERGY =  -10.205510
  0.30097728D-02  0.55524431D-02  0.89633648D-02  0.11667638D-01  0.99560164D-02
  0.34375732D-02  0.43668241D-03  0.20126652D-03 -0.56437234D-03  0.27200098D-04
  0.20855310D-04  0.10408261D-04 -0.17586054D-03 -0.13483871D-03 -0.67293965D-04
 -0.36228068D-04 -0.27777385D-04 -0.13862862D-04  0.56571841D-03 -0.14867686D-04
  0.10275093D-03  0.36883030D-04  0.87949520D-03  0.11554086D-02  0.85389811D-03
 -0.90174461D-04 -0.15508947D-04  0.78127055D-04 -0.33239885D-04 -0.55956815D-03
 -0.20170965D-04  0.18989865D-03 -0.18269195D-04  0.10547125D-03  0.20932245D-03
  0.71979722D-03  0.14931701D-03 -0.81349179D-03 -0.10120448D-02  0.25093085D-03
  0.18552444D-03 -0.11473469D-02 -0.69888189D-03  0.33689809D-03  0.53245219D+00
  0.98227032D+00  0.15856889D+01  0.20640958D+01  0.17612966D+01  0.60813341D+00
 -0.79088027D-02 -0.36451599D-02  0.10221409D-01  0.57439622D-04  0.44041059D-04
  0.21979575D-04 -0.47752689D-04 -0.36613733D-04 -0.18272819D-04  0.74566197D-03
  0.57172630D-03  0.28533149D-03  0.18335944D-02  0.11778869D-04 -0.16401537D-03
 -0.24001390D-03  0.13148582D-01  0.14006430D-01  0.14088539D-01 -0.32334455D-03
  0.18783657D-03 -0.34999680D-03 -0.18467620D-02 -0.21324914D-02 -0.20309748D-02
  0.10307603D-03 -0.34527798D-04  0.53064323D-04  0.15950595D-03  0.69565761D-03