 Title
GAUSSIAN             20 MOL ORBITALS    278 PRIMITIVES        8 NUCLEI
  O    1    (CENTRE  1)   0.00582409 -0.14473646  0.00536930  CHARGE =  8.0
  C    2    (CENTRE  2)  -0.02535492  2.14946470  0.01263422  CHARGE =  6.0
  C    3    (CENTRE  3)   2.25790952  3.65871376  0.00084986  CHARGE =  6.0
  C    4    (CENTRE  4)   4.16307604  4.90050203 -0.00902053  CHARGE =  6.0
  C    5    (CENTRE  5)  -2.34879575  3.59599729  0.03345192  CHARGE =  6.0
  C    6    (CENTRE  6)  -4.28699533  4.78548387  0.05076028  CHARGE =  6.0
  H    7    (CENTRE  7)   5.85314969  5.98657204 -0.01775395  CHARGE =  1.0
  H    8    (CENTRE  8)  -6.00582653  5.82536867  0.06599439  CHARGE =  1.0
CENTRE ASSIGNMENTS    1  1  1  1  1  1  1  1  1  1  1  1  1  1  1  1  1  1  1  1
CENTRE ASSIGNMENTS    1  1  1  1  1  1  1  1  1  1  1  1  1  1  1  1  1  1  1  1
CENTRE ASSIGNMENTS    1  1  1  1  2  2  2  2  2  2  2  2  2  2  2  2  2  2  2  2
CENTRE ASSIGNMENTS    2  2  2  2  2  2  2  2  2  2  2  2  2  2  2  2  2  2  2  2
CENTRE ASSIGNMENTS    2  2  2  2  2  2  2  2  3  3  3  3  3  3  3  3  3  3  3  3
CENTRE ASSIGNMENTS    3  3  3  3  3  3  3  3  3  3  3  3  3  3  3  3  3  3  3  3
CENTRE ASSIGNMENTS    3  3  3  3  3  3  3  3  3  3  3  3  4  4  4  4  4  4  4  4
CENTRE ASSIGNMENTS    4  4  4  4  4  4  4  4  4  4  4  4  4  4  4  4  4  4  4  4
CENTRE ASSIGNMENTS    4  4  4  4  4  4  4  4  4  4  4  4  4  4  4  4  5  5  5  5
CENTRE ASSIGNMENTS    5  5  5  5  5  5  5  5  5  5  5  5  5  5  5  5  5  5  5  5
CENTRE ASSIGNMENTS    5  5  5  5  5  5  5  5  5  5  5  5  5  5  5  5  5  5  5  5
CENTRE ASSIGNMENTS    6  6  6  6  6  6  6  6  6  6  6  6  6  6  6  6  6  6  6  6
CENTRE ASSIGNMENTS    6  6  6  6  6  6  6  6  6  6  6  6  6  6  6  6  6  6  6  6
CENTRE ASSIGNMENTS    6  6  6  6  7  7  7  7  7  7  7  8  8  8  8  8  8  8
TYPE ASSIGNMENTS      1  1  1  1  1  1  1  1  1  2  2  2  3  3  3  4  4  4  1  2
TYPE ASSIGNMENTS      3  4  5  6  7  8  9 10  5  6  7  8  9 10 11 12 13 17 14 15
TYPE ASSIGNMENTS     18 19 16 20  1  1  1  1  1  1  1  1  1  2  2  2  3  3  3  4
TYPE ASSIGNMENTS      4  4  1  2  3  4  5  6  7  8  9 10  5  6  7  8  9 10 11 12
TYPE ASSIGNMENTS     13 17 14 15 18 19 16 20  1  1  1  1  1  1  1  1  1  2  2  2
TYPE ASSIGNMENTS      3  3  3  4  4  4  1  2  3  4  5  6  7  8  9 10  5  6  7  8
TYPE ASSIGNMENTS      9 10 11 12 13 17 14 15 18 19 16 20  1  1  1  1  1  1  1  1
TYPE ASSIGNMENTS      1  2  2  2  3  3  3  4  4  4  1  2  3  4  5  6  7  8  9 10
TYPE ASSIGNMENTS      5  6  7  8  9 10 11 12 13 17 14 15 18 19 16 20  1  1  1  1
TYPE ASSIGNMENTS      1  1  1  1  1  2  2  2  3  3  3  4  4  4  1  2  3  4  5  6
TYPE ASSIGNMENTS      7  8  9 10  5  6  7  8  9 10 11 12 13 17 14 15 18 19 16 20
TYPE ASSIGNMENTS      1  1  1  1  1  1  1  1  1  2  2  2  3  3  3  4  4  4  1  2
TYPE ASSIGNMENTS      3  4  5  6  7  8  9 10  5  6  7  8  9 10 11 12 13 17 14 15
TYPE ASSIGNMENTS     18 19 16 20  1  1  1  1  2  3  4  1  1  1  1  2  3  4
EXPONENTS  0.5484672D+04 0.8252349D+03 0.1880470D+03 0.5296450D+02 0.1689757D+02
EXPONENTS  0.5799635D+01 0.1553962D+02 0.3599934D+01 0.1013762D+01 0.1553962D+02
EXPONENTS  0.3599934D+01 0.1013762D+01 0.1553962D+02 0.3599934D+01 0.1013762D+01
EXPONENTS  0.1553962D+02 0.3599934D+01 0.1013762D+01 0.2700058D+00 0.2700058D+00
EXPONENTS  0.2700058D+00 0.2700058D+00 0.1600000D+01 0.1600000D+01 0.1600000D+01
EXPONENTS  0.1600000D+01 0.1600000D+01 0.1600000D+01 0.4000000D+00 0.4000000D+00
EXPONENTS  0.4000000D+00 0.4000000D+00 0.4000000D+00 0.4000000D+00 0.1400000D+01
EXPONENTS  0.1400000D+01 0.1400000D+01 0.1400000D+01 0.1400000D+01 0.1400000D+01
EXPONENTS  0.1400000D+01 0.1400000D+01 0.1400000D+01 0.1400000D+01 0.3047525D+04
EXPONENTS  0.4573695D+03 0.1039487D+03 0.2921016D+02 0.9286663D+01 0.3163927D+01
EXPONENTS  0.7868272D+01 0.1881289D+01 0.5442493D+00 0.7868272D+01 0.1881289D+01
EXPONENTS  0.5442493D+00 0.7868272D+01 0.1881289D+01 0.5442493D+00 0.7868272D+01
EXPONENTS  0.1881289D+01 0.5442493D+00 0.1687145D+00 0.1687145D+00 0.1687145D+00
EXPONENTS  0.1687145D+00 0.1600000D+01 0.1600000D+01 0.1600000D+01 0.1600000D+01
EXPONENTS  0.1600000D+01 0.1600000D+01 0.4000000D+00 0.4000000D+00 0.4000000D+00
EXPONENTS  0.4000000D+00 0.4000000D+00 0.4000000D+00 0.8000000D+00 0.8000000D+00
EXPONENTS  0.8000000D+00 0.8000000D+00 0.8000000D+00 0.8000000D+00 0.8000000D+00
EXPONENTS  0.8000000D+00 0.8000000D+00 0.8000000D+00 0.3047525D+04 0.4573695D+03
EXPONENTS  0.1039487D+03 0.2921016D+02 0.9286663D+01 0.3163927D+01 0.7868272D+01
EXPONENTS  0.1881289D+01 0.5442493D+00 0.7868272D+01 0.1881289D+01 0.5442493D+00
EXPONENTS  0.7868272D+01 0.1881289D+01 0.5442493D+00 0.7868272D+01 0.1881289D+01
EXPONENTS  0.5442493D+00 0.1687145D+00 0.1687145D+00 0.1687145D+00 0.1687145D+00
EXPONENTS  0.1600000D+01 0.1600000D+01 0.1600000D+01 0.1600000D+01 0.1600000D+01
EXPONENTS  0.1600000D+01 0.4000000D+00 0.4000000D+00 0.4000000D+00 0.4000000D+00
EXPONENTS  0.4000000D+00 0.4000000D+00 0.8000000D+00 0.8000000D+00 0.8000000D+00
EXPONENTS  0.8000000D+00 0.8000000D+00 0.8000000D+00 0.8000000D+00 0.8000000D+00
EXPONENTS  0.8000000D+00 0.8000000D+00 0.3047525D+04 0.4573695D+03 0.1039487D+03
EXPONENTS  0.2921016D+02 0.9286663D+01 0.3163927D+01 0.7868272D+01 0.1881289D+01
EXPONENTS  0.5442493D+00 0.7868272D+01 0.1881289D+01 0.5442493D+00 0.7868272D+01
EXPONENTS  0.1881289D+01 0.5442493D+00 0.7868272D+01 0.1881289D+01 0.5442493D+00
EXPONENTS  0.1687145D+00 0.1687145D+00 0.1687145D+00 0.1687145D+00 0.1600000D+01
EXPONENTS  0.1600000D+01 0.1600000D+01 0.1600000D+01 0.1600000D+01 0.1600000D+01
EXPONENTS  0.4000000D+00 0.4000000D+00 0.4000000D+00 0.4000000D+00 0.4000000D+00
EXPONENTS  0.4000000D+00 0.8000000D+00 0.8000000D+00 0.8000000D+00 0.8000000D+00
EXPONENTS  0.8000000D+00 0.8000000D+00 0.8000000D+00 0.8000000D+00 0.8000000D+00
EXPONENTS  0.8000000D+00 0.3047525D+04 0.4573695D+03 0.1039487D+03 0.2921016D+02
EXPONENTS  0.9286663D+01 0.3163927D+01 0.7868272D+01 0.1881289D+01 0.5442493D+00
EXPONENTS  0.7868272D+01 0.1881289D+01 0.5442493D+00 0.7868272D+01 0.1881289D+01
EXPONENTS  0.5442493D+00 0.7868272D+01 0.1881289D+01 0.5442493D+00 0.1687145D+00
EXPONENTS  0.1687145D+00 0.1687145D+00 0.1687145D+00 0.1600000D+01 0.1600000D+01
EXPONENTS  0.1600000D+01 0.1600000D+01 0.1600000D+01 0.1600000D+01 0.4000000D+00
EXPONENTS  0.4000000D+00 0.4000000D+00 0.4000000D+00 0.4000000D+00 0.4000000D+00
EXPONENTS  0.8000000D+00 0.8000000D+00 0.8000000D+00 0.8000000D+00 0.8000000D+00
EXPONENTS  0.8000000D+00 0.8000000D+00 0.8000000D+00 0.8000000D+00 0.8000000D+00
EXPONENTS  0.3047525D+04 0.4573695D+03 0.1039487D+03 0.2921016D+02 0.9286663D+01
EXPONENTS  0.3163927D+01 0.7868272D+01 0.1881289D+01 0.5442493D+00 0.7868272D+01
EXPONENTS  0.1881289D+01 0.5442493D+00 0.7868272D+01 0.1881289D+01 0.5442493D+00
EXPONENTS  0.7868272D+01 0.1881289D+01 0.5442493D+00 0.1687145D+00 0.1687145D+00
EXPONENTS  0.1687145D+00 0.1687145D+00 0.1600000D+01 0.1600000D+01 0.1600000D+01
EXPONENTS  0.1600000D+01 0.1600000D+01 0.1600000D+01 0.4000000D+00 0.4000000D+00
EXPONENTS  0.4000000D+00 0.4000000D+00 0.4000000D+00 0.4000000D+00 0.8000000D+00
EXPONENTS  0.8000000D+00 0.8000000D+00 0.8000000D+00 0.8000000D+00 0.8000000D+00
EXPONENTS  0.8000000D+00 0.8000000D+00 0.8000000D+00 0.8000000D+00 0.1873114D+02
EXPONENTS  0.2825394D+01 0.6401217D+00 0.1612778D+00 0.1100000D+01 0.1100000D+01
EXPONENTS  0.1100000D+01 0.1873114D+02 0.2825394D+01 0.6401217D+00 0.1612778D+00
EXPONENTS  0.1100000D+01 0.1100000D+01 0.1100000D+01
MO    1     MO 0.0        OCC NO =    2.0000000  ORB. ENERGY =  -19.153898
  0.82878165D+00  0.15254007D+01  0.24683862D+01  0.32447627D+01  0.27830142D+01
  0.95155980D+00 -0.38237677D-01 -0.17061577D-01  0.50383065D-01 -0.71235738D-04
 -0.54883296D-04 -0.24096723D-04  0.52421885D-02  0.40388236D-02  0.17732611D-02
  0.16641216D-04  0.12821160D-04  0.56291797D-05 -0.16527101D-01  0.50570350D-05
 -0.37207925D-03 -0.11757373D-05 -0.19643147D-01 -0.17868421D-01 -0.19654547D-01
 -0.48247248D-04 -0.31083407D-06  0.11308392D-04  0.58134782D-02  0.56171533D-02
  0.58234743D-02  0.53375387D-05  0.15862552D-06 -0.12918414D-05  0.19341153D-05
  0.26344388D-04  0.19107226D-06 -0.49523169D-05 -0.14224301D-03 -0.49543192D-06
 -0.85002902D-06  0.63209843D-04 -0.77784853D-07  0.28985494D-05 -0.22310916D-04
 -0.41159284D-04 -0.66443846D-04 -0.86490145D-04 -0.73802197D-04 -0.25482125D-04
  0.18311329D-03  0.84396748D-04 -0.23665729D-03  0.77176101D-05  0.59173739D-05
  0.29531843D-05 -0.56771162D-03 -0.43528526D-03 -0.21723785D-03 -0.17710640D-05
 -0.13579396D-05 -0.67770701D-06 -0.13952406D-03  0.33568459D-05 -0.24709820D-03
 -0.76279101D-06  0.32361620D-03  0.31262728D-03  0.25164851D-03  0.29988661D-06
 -0.10234741D-05  0.33757369D-06 -0.23934555D-03 -0.37316040D-03  0.24744249D-05
  0.36320894D-05  0.34529997D-05 -0.22907813D-05  0.16234922D-04  0.58750763D-03
 -0.18041401D-05 -0.56457247D-04 -0.11939810D-02 -0.38918956D-05  0.77524811D-05
 -0.56854186D-03  0.93043160D-05  0.85081429D-05  0.16195017D-04  0.29876644D-04
  0.48230167D-04  0.62781347D-04  0.53571437D-04  0.18496930D-04 -0.20459378D-03
 -0.94297088D-04  0.26441888D-03 -0.21303556D-03 -0.16334215D-03 -0.81519183D-04
 -0.12196636D-03 -0.93516067D-04 -0.46671071D-04  0.11600829D-05  0.88947796D-06
  0.44391184D-06  0.12598334D-03 -0.21325463D-03 -0.14923560D-03  0.10719972D-05
 -0.19534874D-03 -0.14777500D-03 -0.30864986D-03  0.31253173D-03 -0.65739880D-06
 -0.12636496D-05  0.16796952D-03 -0.22595280D-04 -0.41167013D-04  0.16144609D-03
 -0.25183867D-05 -0.10488167D-05  0.65316110D-05  0.85578631D-04  0.26719410D-06
  0.28526037D-04 -0.23237827D-03 -0.15410922D-05 -0.48120870D-04 -0.24357617D-04
  0.73950990D-06  0.34774591D-05 -0.17480482D-04 -0.32248076D-04 -0.52058393D-04
 -0.67764560D-04 -0.57823622D-04 -0.19965107D-04  0.15204062D-03  0.70075381D-04
 -0.19649868D-03  0.67687622D-04  0.51898575D-04  0.25901026D-04  0.10556428D-03
  0.80939997D-04  0.40394731D-04 -0.16112277D-06 -0.12353872D-06 -0.61654481D-07
  0.18539095D-03 -0.37061896D-04 -0.52318907D-05  0.25124928D-06  0.14127013D-03
  0.22782835D-03  0.18986588D-03  0.60651889D-04  0.89359562D-06 -0.19681202D-06
 -0.12747629D-04 -0.44777534D-04  0.21055513D-04 -0.97523028D-04  0.18116502D-06
  0.29193585D-06 -0.33316149D-05  0.35540551D-04  0.11489658D-07  0.18480013D-04
 -0.89987963D-04 -0.33239542D-06 -0.84851678D-05 -0.16633689D-04  0.29792644D-06
  0.12134839D-05  0.16196600D-04  0.29879565D-04  0.48234882D-04  0.62787484D-04
  0.53576674D-04  0.18498738D-04 -0.20460535D-03 -0.94302418D-04  0.26443382D-03
  0.21626947D-03  0.16582172D-03  0.82756658D-04 -0.11611403D-03 -0.89028872D-04
 -0.44431647D-04 -0.18800815D-05 -0.14415273D-05 -0.71942314D-06  0.12601639D-03
  0.21721196D-03 -0.14336461D-03 -0.19735309D-05 -0.18683977D-03 -0.15631812D-03
 -0.30864779D-03 -0.31465117D-03 -0.26863431D-05  0.31420283D-05  0.17222024D-03
 -0.26849769D-04 -0.41160911D-04 -0.15083818D-03 -0.34665514D-05  0.11512768D-05
 -0.23186879D-06  0.84536878D-04 -0.41772621D-06 -0.48083761D-04 -0.23057963D-03
 -0.13351482D-07  0.48779368D-04 -0.23031007D-04  0.12665301D-05  0.23174566D-05
 -0.17480722D-04 -0.32248519D-04 -0.52059109D-04 -0.67765492D-04 -0.57824417D-04
 -0.19965382D-04  0.15204194D-03  0.70075993D-04 -0.19650040D-03 -0.70532230D-04
 -0.54079640D-04 -0.26989531D-04  0.10367851D-03  0.79494103D-04  0.39673129D-04
  0.81704072D-06  0.62645500D-06  0.31264495D-06  0.18535647D-03  0.37172303D-04
 -0.42103488D-05 -0.27347081D-06  0.14298547D-03  0.22611960D-03  0.18986715D-03
 -0.65280677D-04  0.44921714D-06  0.68827343D-06 -0.15425507D-04 -0.42106657D-04
  0.21053556D-04  0.99132903D-04  0.81908607D-06 -0.10873771D-05  0.57508471D-05
  0.34930407D-04 -0.11455154D-06 -0.26190096D-04 -0.88404951D-04 -0.26669036D-06
  0.89375542D-05 -0.16386270D-04  0.61034498D-06  0.78995519D-06  0.25166496D-04
  0.42687141D-04  0.48597801D-04 -0.24748632D-05 -0.80422428D-04 -0.17256728D-04
  0.52263860D-06  0.25171821D-04  0.42696173D-04  0.48608084D-04 -0.24827418D-05
  0.80865022D-04 -0.15087357D-04 -0.61041674D-06
MO    2     MO 0.0        OCC NO =    2.0000000  ORB. ENERGY =  -10.319864
 -0.12536268D-03 -0.23073425D-03 -0.37337157D-03 -0.49080738D-03 -0.42096264D-03
 -0.14393428D-03 -0.31019262D-03 -0.13840734D-03  0.40871873D-03  0.18276950D-04
  0.14081405D-04  0.61824952D-05 -0.13458444D-02 -0.10369006D-02 -0.45525520D-03
 -0.42855667D-05 -0.33017981D-05 -0.14496672D-05 -0.53447491D-03  0.68061508D-05
 -0.49956511D-03 -0.16001713D-05  0.15747963D-03 -0.13764795D-02  0.12204590D-03
  0.41699581D-04 -0.37206950D-06 -0.94818634D-05  0.14098374D-03 -0.49568145D-03
  0.16735304D-03  0.17316078D-04  0.42821448D-06 -0.42377109D-05 -0.11599942D-04
 -0.38128999D-03  0.95468701D-06  0.38780331D-04  0.85266224D-03  0.28399398D-05
 -0.39805048D-05  0.29120774D-03 -0.57040008D-05 -0.77231515D-05  0.53275756D+00
  0.98283367D+00  0.15865983D+01  0.20652795D+01  0.17623068D+01  0.60848218D+00
 -0.88484668D-02 -0.40782502D-02  0.11435839D-01 -0.96293777D-05 -0.73831961D-05
 -0.36847323D-05  0.70852786D-03  0.54325423D-03  0.27112193D-03  0.20310677D-05
  0.15572939D-05  0.77719878D-06  0.13801449D-02 -0.26868605D-06  0.14752355D-04
  0.46669138D-07  0.14557554D-01  0.15734404D-01  0.11523987D-01 -0.31842602D-04
 -0.43279822D-04  0.25816949D-04 -0.13486308D-02 -0.16783496D-02 -0.22118540D-02
  0.89873573D-05 -0.12257542D-04  0.31175969D-05 -0.30838433D-04 -0.71795300D-03
 -0.32541179D-06  0.91054144D-04  0.22684378D-02  0.74923743D-05  0.14611552D-05
 -0.11457877D-03 -0.65161390D-05 -0.33368506D-04  0.87394209D-03  0.16122525D-02
  0.26026755D-02  0.33879101D-02  0.28909098D-02  0.99816170D-03  0.38637146D-03
  0.17807825D-03 -0.49935000D-03  0.36259695D-03  0.27801634D-03  0.13874964D-03
  0.29142969D-03  0.22344980D-03  0.11151711D-03 -0.17256497D-05 -0.13231187D-05
 -0.66032898D-06 -0.28857990D-02 -0.11207537D-02 -0.74831991D-03  0.57605836D-05
  0.17818940D-02  0.12505155D-02  0.98511445D-03  0.11409733D-02 -0.80264485D-05
 -0.66147127D-05 -0.98363057D-03 -0.26081697D-03  0.32591906D-03 -0.17973318D-02
  0.13346948D-04  0.93456393D-05  0.73621291D-04 -0.35549922D-03  0.41599050D-05
  0.62575776D-03  0.16991117D-02 -0.85848068D-05 -0.84662163D-03 -0.63261401D-03
 -0.38949081D-05 -0.24537258D-04  0.17771534D-03  0.32785011D-03  0.52925173D-03
  0.68892849D-03  0.58786393D-03  0.20297529D-03 -0.11932458D-02 -0.54996591D-03
  0.15421618D-02 -0.71709683D-03 -0.54982437D-03 -0.27440089D-03 -0.47958300D-03
 -0.36771382D-03 -0.18351497D-03  0.36922386D-05  0.28309744D-05  0.14128546D-05
  0.24028083D-02 -0.11850281D-02 -0.75821527D-03  0.61652549D-05 -0.17641898D-02
 -0.14103264D-02 -0.13020818D-02 -0.50810051D-03  0.50649617D-05  0.29780197D-05
  0.39338607D-03  0.97664353D-04 -0.95598557D-04  0.60494833D-03 -0.51346856D-05
 -0.31387429D-05  0.13633615D-03 -0.27473497D-03  0.39601255D-05  0.34990122D-03
  0.13058315D-02 -0.98025720D-05 -0.75890966D-03 -0.48162657D-03 -0.20778046D-05
 -0.18811207D-04  0.87394084D-03  0.16122502D-02  0.26026717D-02  0.33879053D-02
  0.28909057D-02  0.99816026D-03  0.38636313D-03  0.17807441D-03 -0.49933924D-03
 -0.37041088D-03 -0.28400757D-03 -0.14173968D-03  0.28142070D-03  0.21577555D-03
  0.10768712D-03  0.34827522D-05  0.26703535D-05  0.13326936D-05 -0.28858162D-02
  0.11405961D-02 -0.71744054D-03 -0.10247836D-04  0.18125425D-02  0.12197861D-02
  0.98514738D-03 -0.11102826D-02 -0.15073602D-04  0.92758165D-05 -0.10319541D-02
 -0.21242870D-03  0.32584332D-03  0.17552758D-02  0.24517378D-04 -0.15666292D-04
 -0.12014851D-03 -0.37087301D-03 -0.79464278D-05 -0.50285853D-03  0.17218269D-02
  0.19972085D-04  0.86330406D-03 -0.60920791D-03  0.38671986D-05 -0.41228486D-04
  0.17771633D-03  0.32785194D-03  0.52925468D-03  0.68893234D-03  0.58786721D-03
  0.20297642D-03 -0.11932555D-02 -0.54997037D-03  0.15421743D-02  0.72991237D-03
  0.55965051D-03  0.27930483D-03 -0.45981375D-03 -0.35255602D-03 -0.17595016D-03
 -0.65914222D-05 -0.50538845D-05 -0.25222426D-05  0.24027021D-02  0.12051217D-02
 -0.72571455D-03 -0.10707599D-04 -0.17777623D-02 -0.13967596D-02 -0.13021195D-02
  0.48806165D-03  0.82501301D-05 -0.40486249D-05  0.40955297D-03  0.81463991D-04
 -0.95573077D-04 -0.58798218D-03 -0.89178372D-05  0.52252592D-05 -0.17183287D-03
 -0.28296910D-03 -0.68406265D-05 -0.25603632D-03  0.13096457D-02  0.18494444D-04
  0.77153494D-03 -0.46073845D-03  0.20274355D-05 -0.31212394D-04 -0.22967730D-03
 -0.38957617D-03 -0.44351870D-03  0.45464182D-03  0.82675535D-03  0.54680718D-03
 -0.42183488D-05 -0.22967539D-03 -0.38957293D-03 -0.44351501D-03  0.45463027D-03
 -0.84120949D-03  0.52424969D-03  0.74807342D-05
MO    3     MO 0.0        OCC NO =    2.0000000  ORB. ENERGY =  -10.217555
  0.32153950D-04  0.59180433D-04  0.95765111D-04  0.12588592D-03  0.10797162D-03
  0.36917331D-04 -0.16330906D-03 -0.72868182D-04  0.21518072D-03  0.10975476D-04
  0.84560129D-05  0.37126451D-05 -0.70421705D-03 -0.54256128D-03 -0.23821362D-03
 -0.22916418D-05 -0.17655865D-05 -0.77518755D-06 -0.85318836D-03  0.64507747D-05
 -0.61979600D-03 -0.19379938D-05 -0.23854598D-03 -0.28540659D-04  0.14038040D-03
 -0.93782518D-05  0.53673264D-05 -0.98196757D-06  0.19052836D-03 -0.24427005D-03
  0.11020849D-03  0.13817336D-04 -0.11003495D-05 -0.22949845D-05 -0.34323823D-06
 -0.45065091D-04  0.69464948D-06  0.89094612D-05 -0.62937063D-04 -0.30485808D-06
 -0.78797465D-05  0.19813234D-03 -0.17790904D-05  0.38294937D-05 -0.53887852D-04
 -0.99412564D-04 -0.16048270D-03 -0.20890079D-03 -0.17825543D-03 -0.61547315D-04
 -0.14255027D-02 -0.65701287D-03  0.18423327D-02  0.20338779D-04  0.15594486D-04
  0.77827414D-05  0.56408654D-03  0.43250578D-03  0.21585070D-03  0.14285855D-05
  0.10953488D-05  0.54665580D-06  0.28654185D-02  0.77153517D-05  0.57888989D-03
  0.16308070D-05 -0.10906750D-02 -0.13069759D-02 -0.11907619D-02  0.20551695D-04
 -0.13528599D-05 -0.85902508D-06  0.66800395D-03  0.58550030D-03 -0.11430296D-03
  0.51375419D-05 -0.11127223D-04  0.41855860D-05 -0.45340762D-05 -0.11585233D-03
  0.33037219D-06  0.52619570D-05  0.21502760D-03  0.89323176D-06  0.83402717D-05
  0.13252941D-03 -0.18843483D-05 -0.11902393D-05  0.67888621D-01  0.12524125D+00
  0.20217821D+00  0.26317596D+00  0.22456852D+00  0.77538113D-01 -0.61585713D-03
 -0.28384799D-03  0.79593939D-03  0.10571666D-03  0.81056827D-04  0.40453038D-04
  0.42231419D-04  0.32380374D-04  0.16160076D-04 -0.64168827D-06 -0.49200586D-06
 -0.24554541D-06  0.33181829D-03  0.12671904D-02  0.76817381D-03 -0.67378431D-05
  0.34268781D-02  0.29237114D-02  0.26473675D-02  0.13880429D-02 -0.70321030D-05
 -0.82676443D-05 -0.10153268D-02 -0.47154898D-03 -0.60970056D-04 -0.13967426D-02
  0.94672140D-05  0.75174507D-05 -0.97343769D-06  0.18656462D-04 -0.17057420D-06
 -0.12438307D-04 -0.32026358D-04  0.11885142D-06  0.15358620D-04 -0.23943029D-04
  0.39287116D-06 -0.83327526D-07  0.38093756D+00  0.70275541D+00  0.11344651D+01
  0.14767365D+01  0.12601020D+01  0.43508292D+00 -0.54122752D-02 -0.24945127D-02
  0.69948740D-02 -0.76230447D-03 -0.58448672D-03 -0.29169984D-03 -0.46307450D-03
 -0.35505615D-03 -0.17719790D-03  0.40367523D-05  0.30951256D-05  0.15446846D-05
  0.76661197D-04  0.59578553D-03  0.41532126D-03 -0.30006462D-05  0.13098930D-01
  0.11479833D-01  0.10204458D-01  0.38677733D-02 -0.29664855D-04 -0.19925859D-04
 -0.15249379D-02 -0.15828606D-02 -0.15379918D-02 -0.38357039D-04 -0.27574769D-06
  0.23173107D-07  0.66658314D-04 -0.10812685D-03  0.20704806D-05  0.20489857D-03
  0.59204105D-03 -0.53864595D-05 -0.40487351D-03 -0.26766050D-03 -0.82498244D-06
 -0.85432500D-05  0.64178301D-01  0.11839643D+00  0.19112855D+00  0.24879259D+00
  0.21229517D+00  0.73300419D-01 -0.54876460D-03 -0.25292510D-03  0.70922839D-03
 -0.12238735D-03 -0.93838859D-04 -0.46832167D-04  0.46911670D-04  0.35968893D-04
  0.17950998D-04  0.10240934D-05  0.78520989D-06  0.39187476D-06  0.31303497D-03
 -0.12504393D-02  0.70580363D-03  0.10999244D-04  0.33193223D-02  0.27687835D-02
  0.25475348D-02 -0.13156358D-02 -0.14886855D-04  0.10679554D-04 -0.10183782D-02
 -0.42035807D-03 -0.57785590D-04  0.13339240D-02  0.17582909D-04 -0.11617928D-04
 -0.36138309D-06  0.16622819D-04 -0.51317926D-08  0.11811150D-04 -0.23146278D-04
 -0.20823483D-06 -0.10727001D-04 -0.26722180D-04  0.22363020D-06  0.59996221D-07
  0.36024587D+00  0.66458328D+00  0.10728435D+01  0.13965234D+01  0.11916560D+01
  0.41145017D+00 -0.51514949D-02 -0.23743193D-02  0.66578392D-02  0.75975114D-03
  0.58252899D-03  0.29072279D-03 -0.42875843D-03 -0.32874477D-03 -0.16406668D-03
 -0.67222903D-05 -0.51542258D-05 -0.25723199D-05  0.43213855D-04 -0.57951451D-03
  0.38469021D-03  0.52450247D-05  0.12452537D-01  0.10729746D-01  0.96130595D-02
 -0.35832458D-02 -0.50926627D-04  0.32048260D-04 -0.14356089D-02 -0.15001902D-02
 -0.14556000D-02  0.36505231D-04 -0.18854880D-06 -0.51491986D-06 -0.79162359D-04
 -0.10917995D-03 -0.35805248D-05 -0.16433604D-03  0.57915647D-03  0.90597514D-05
  0.40182311D-03 -0.25161661D-03  0.16818228D-05 -0.15069055D-04 -0.53972143D-04
 -0.91546970D-04 -0.10422299D-03 -0.36451718D-03  0.10030981D-02  0.66885707D-03
 -0.51242284D-05 -0.54494203D-04 -0.92432482D-04 -0.10523111D-03 -0.34597904D-03
 -0.97542983D-03  0.61532726D-03  0.87195810D-05
MO    4     MO 0.0        OCC NO =    2.0000000  ORB. ENERGY =  -10.217552
  0.89817735D-06  0.16531258D-05  0.26750696D-05  0.35164539D-05  0.30160420D-05
  0.10312360D-05 -0.45619561D-05 -0.20355359D-05  0.60109648D-05 -0.49793206D-04
 -0.38362981D-04 -0.16843415D-04 -0.20341419D-04 -0.15671967D-04 -0.68808375D-05
  0.29159431D-06  0.22465770D-06  0.98636830D-07 -0.23817401D-04  0.70870364D-04
 -0.16343162D-04 -0.55266743D-06 -0.84443095D-05  0.98836578D-06  0.39165220D-05
  0.13094170D-03  0.52671227D-06 -0.95207356D-06  0.62896352D-05 -0.77926597D-05
  0.30803042D-05 -0.70953863D-04 -0.24947351D-06  0.44097749D-06  0.42685802D-04
 -0.55410362D-05 -0.13003078D-05 -0.31404906D-03  0.85270068D-05  0.17615487D-05
  0.18599166D-03  0.80961017D-05  0.21393748D-05 -0.30979481D-05 -0.15019105D-05
 -0.27707316D-05 -0.44728200D-05 -0.58222826D-05 -0.49681643D-05 -0.17153877D-05
 -0.39818245D-04 -0.18352193D-04  0.51461463D-04 -0.10026984D-02 -0.76880553D-03
 -0.38368784D-03  0.20992596D-05  0.16095791D-05  0.80329277D-06  0.71428609D-05
  0.54766927D-05  0.27332535D-05  0.80010349D-04 -0.55808773D-03  0.85701109D-05
  0.39958836D-05 -0.23345587D-04 -0.43653820D-04 -0.33261343D-04 -0.52481125D-03
 -0.17102815D-05  0.36662464D-05  0.20056011D-04  0.14951785D-04 -0.31922563D-05
 -0.10191292D-03 -0.63028313D-06  0.84010486D-06  0.57786192D-04 -0.65244794D-06
  0.25832535D-05  0.18999779D-03  0.32353761D-05 -0.63953645D-05 -0.36335637D-03
 -0.12780323D-05 -0.13543960D-05  0.32308209D-05 -0.64554512D-01 -0.11909047D+00
 -0.19224894D+00 -0.25025100D+00 -0.21353963D+00 -0.73730104D-01  0.11848168D-02
  0.54608097D-03 -0.15312680D-02  0.27732797D-03  0.21263750D-03  0.10612101D-03
  0.14519156D-03  0.11132368D-03  0.55558319D-04 -0.15387043D-05 -0.11797808D-05
 -0.58879332D-06 -0.32813389D-03 -0.61727552D-03 -0.49091721D-03  0.29426822D-05
 -0.24788055D-02 -0.20435855D-02 -0.17149158D-02 -0.75510991D-03  0.86509491D-05
  0.34390503D-05  0.57362485D-03  0.24588441D-03  0.56278926D-04  0.53822971D-03
 -0.57590234D-05 -0.27021414D-05  0.34386589D-04 -0.42124960D-04  0.35739386D-06
 -0.33685318D-04  0.17180864D-03 -0.12080158D-05 -0.69474448D-04 -0.45433758D-04
  0.13583422D-06 -0.28697370D-05 -0.36011183D+00 -0.66433601D+00 -0.10724443D+01
 -0.13960038D+01 -0.11912126D+01 -0.41129708D+00  0.45213078D-02  0.20838666D-02
 -0.58433795D-02  0.23902037D-03  0.18326566D-03  0.91462406D-04  0.23300130D-03
  0.17865062D-03  0.89159180D-04 -0.10090135D-05 -0.77364757D-06 -0.38610436D-06
 -0.59636666D-03 -0.46615355D-03 -0.25812793D-03  0.25400877D-05 -0.12980902D-01
 -0.11352153D-01 -0.10314451D-01 -0.34060266D-02  0.27769373D-04  0.18035616D-04
  0.15752157D-02  0.14200329D-02  0.14333004D-02  0.96102124D-04 -0.17350535D-05
 -0.76331352D-06 -0.53447476D-04  0.67563945D-04 -0.91585234D-06 -0.60933815D-05
 -0.28850139D-03  0.26195732D-05  0.16643581D-03  0.85809554D-04  0.12798378D-06
  0.42389967D-05  0.68241062D-01  0.12589143D+00  0.20322781D+00  0.26454222D+00
  0.22573436D+00  0.77940649D-01 -0.12173028D-02 -0.56105374D-03  0.15732533D-02
  0.27475184D-03  0.21066228D-03  0.10513524D-03 -0.13521847D-03 -0.10367695D-03
 -0.51742063D-04 -0.23370535D-05 -0.17919044D-05 -0.89428588D-06  0.34606555D-03
 -0.70124400D-03  0.51409354D-03  0.65156654D-05  0.26884242D-02  0.21812151D-02
  0.18599876D-02 -0.80491723D-03 -0.14198699D-04  0.76454092D-05 -0.64582972D-03
 -0.25536427D-03 -0.59612182D-04  0.59500274D-03  0.10093537D-04 -0.53866669D-05
  0.39006249D-04  0.42023147D-04  0.62530969D-06 -0.45657126D-04 -0.16817848D-03
 -0.23277039D-05 -0.71361621D-04  0.42109038D-04  0.45177486D-06  0.31119853D-05
  0.38081140D+00  0.70252268D+00  0.11340894D+01  0.14762475D+01  0.12596846D+01
  0.43493883D+00 -0.48163369D-02 -0.22198453D-02  0.62246778D-02  0.28816519D-03
  0.22094679D-03  0.11026793D-03 -0.25066620D-03 -0.19219495D-03 -0.95918748D-04
 -0.28248212D-05 -0.21658937D-05 -0.10809328D-05  0.59977970D-03 -0.50606901D-03
  0.26723958D-03  0.43813527D-05  0.13788567D-01  0.11878174D-01  0.10868057D-01
 -0.35178678D-02 -0.51910608D-04  0.30969271D-04 -0.16604048D-02 -0.15036056D-02
 -0.15169127D-02  0.89675792D-04  0.23079150D-05 -0.55917752D-06 -0.65668614D-04
 -0.73634400D-04 -0.16260107D-05  0.56309827D-05  0.31638159D-03  0.50133649D-05
  0.19137486D-03 -0.95478393D-04 -0.13533282D-06 -0.68783943D-05 -0.10947501D-04
 -0.18569034D-04 -0.21140189D-04  0.32225102D-03 -0.77238671D-03 -0.47047038D-03
  0.40810656D-05  0.79120419D-05  0.13420321D-04  0.15278561D-04 -0.34207422D-03
 -0.84061964D-03  0.48443775D-03  0.73960980D-05
MO    5     MO 0.0        OCC NO =    2.0000000  ORB. ENERGY =  -10.210404
  0.23185381D-05  0.42673478D-05  0.69053743D-05  0.90773078D-05  0.77855541D-05
  0.26620132D-05 -0.10552640D-04 -0.47085673D-05  0.13904462D-04 -0.32147472D-03
 -0.24767894D-03 -0.10874440D-03  0.65375817D-05  0.50368543D-05  0.22114503D-05
  0.23091386D-05  0.17790668D-05  0.78110614D-06  0.57308563D-05 -0.60284768D-03
  0.73977012D-05  0.43116472D-05  0.14459716D-05  0.54301133D-05  0.45423445D-05
 -0.73789475D-04 -0.49120635D-07  0.53550137D-06  0.14230424D-04  0.42139927D-05
  0.38633400D-05 -0.71861305D-03 -0.23809763D-05  0.51131803D-05  0.34769926D-03
 -0.76627346D-05  0.30526135D-06 -0.99869921D-03  0.27365955D-04 -0.79745965D-05
 -0.44398570D-04 -0.43777513D-05  0.70588125D-05 -0.61589022D-05 -0.25579364D-04
 -0.47188931D-04 -0.76177566D-04 -0.99160557D-04 -0.84613883D-04 -0.29215140D-04
  0.18699701D-04  0.86186752D-05 -0.24167665D-04  0.51870739D-03  0.39771192D-03
  0.19848612D-03  0.16755911D-04  0.12847370D-04  0.64117380D-05 -0.36470716D-05
 -0.27963431D-05 -0.13955712D-05 -0.37768977D-04  0.74111361D-03  0.85587536D-05
 -0.52479478D-05  0.19719074D-04  0.57501111D-04  0.35020822D-04  0.18727391D-02
  0.59526527D-05 -0.13190878D-04  0.71264971D-05 -0.32761931D-04  0.77272273D-05
 -0.19228930D-02 -0.58169642D-05  0.13435046D-04 -0.26970678D-03  0.69244425D-05
 -0.88377925D-05 -0.44711358D-03 -0.55814206D-04  0.23469386D-04  0.12562339D-02
  0.35040879D-04  0.30439915D-05 -0.85755295D-05  0.37776134D+00  0.69689591D+00
  0.11250061D+01  0.14644236D+01  0.12495953D+01  0.43145524D+00 -0.54918234D-02
 -0.25311764D-02  0.70976828D-02 -0.20961432D-03 -0.16071897D-03 -0.80210028D-04
  0.96766467D-04  0.74194389D-04  0.37028200D-04  0.17940079D-05  0.13755315D-05
  0.68648660D-06  0.40298167D-02  0.14953674D-02  0.11073024D-02 -0.73694947D-05
  0.12134976D-01  0.10327203D-01  0.87664648D-02  0.41980868D-02 -0.35417587D-04
 -0.20594267D-04 -0.14944157D-02 -0.19014532D-02 -0.18032824D-02  0.24051811D-03
 -0.37392579D-05 -0.23244935D-05 -0.18659967D-04  0.54755757D-04  0.14282517D-05
  0.32766061D-03  0.75320200D-05 -0.34656573D-05 -0.27168071D-03 -0.17179929D-03
 -0.81909784D-06  0.10179602D-05 -0.67715684D-01 -0.12492222D+00 -0.20166319D+00
 -0.26250555D+00 -0.22399646D+00 -0.77340596D-01  0.46646361D-03  0.21499265D-03
 -0.60286184D-03  0.42089716D-03  0.32271725D-03  0.16105852D-03  0.36847933D-03
  0.28252658D-03  0.14100056D-03 -0.18901275D-05 -0.14492299D-05 -0.72326727D-06
 -0.35170560D-02  0.12404285D-02  0.78522558D-03 -0.64774542D-05 -0.22399786D-02
 -0.19072896D-02 -0.16421689D-02 -0.65965868D-03  0.65455618D-05  0.31218572D-05
 -0.16372832D-03  0.29731072D-03  0.65332099D-03 -0.11029577D-02  0.83113767D-05
  0.57032204D-05  0.10307796D-04 -0.58772652D-05  0.28267993D-06  0.30333019D-04
  0.70528675D-04 -0.89977213D-06 -0.61256407D-04 -0.52896879D-04  0.51732342D-07
 -0.12258928D-05 -0.36326944D+00 -0.67016118D+00 -0.10818479D+01 -0.14082446D+01
 -0.12016576D+01 -0.41490351D+00  0.52853753D-02  0.24360246D-02 -0.68308673D-02
 -0.20423511D-03 -0.15659453D-03 -0.78151646D-04 -0.10996458D-03 -0.84313867D-04
 -0.42078529D-04  0.10943676D-05  0.83909169D-06  0.41876556D-06 -0.39222602D-02
  0.15290155D-02 -0.10716692D-02 -0.14049893D-04 -0.11755674D-01 -0.97971703D-02
 -0.83948206D-02  0.39438322D-02  0.59516664D-04 -0.36348962D-04  0.14417839D-02
  0.18544117D-02  0.17374666D-02  0.18693642D-03  0.47297580D-05 -0.62066088D-06
 -0.19696596D-04 -0.44914959D-04  0.25026668D-05  0.34156835D-03 -0.32949541D-04
 -0.36752037D-05 -0.28247856D-03  0.16769442D-03 -0.38327968D-05  0.65703466D-05
  0.65125503D-01  0.12014384D+00  0.19394940D+00  0.25246449D+00  0.21542841D+00
  0.74382253D-01 -0.42704084D-03 -0.19682273D-03  0.55191149D-03  0.40708192D-03
  0.31212460D-03  0.15577205D-03 -0.34425632D-03 -0.26395391D-03 -0.13173150D-03
 -0.39611328D-05 -0.30371454D-05 -0.15157484D-05  0.34730477D-02  0.12482367D-02
 -0.74281145D-03 -0.11075176D-04  0.21978186D-02  0.18435513D-02  0.16049182D-02
 -0.60844103D-03 -0.10197548D-04  0.57158591D-05  0.18867639D-03 -0.31311668D-03
 -0.62904570D-03 -0.10424133D-02 -0.14725859D-04  0.92919826D-05  0.12749837D-04